 Entering Gaussian System, Link 0=/fslapps/gaussian09/B.01/EM64T/g09/g09
 Initial command:
 /apps/gaussian09/B.01/EM64T/g09/l1.exe /tmp/Gau-16883.inp -scrdir=/tmp/
 Entering Link 1 = /apps/gaussian09/B.01/EM64T/g09/l1.exe PID=     16884.
  
 Copyright (c) 1988,1990,1992,1993,1995,1998,2003,2009,2010,
            Gaussian, Inc.  All Rights Reserved.
  
 This is part of the Gaussian(R) 09 program.  It is based on
 the Gaussian(R) 03 system (copyright 2003, Gaussian, Inc.),
 the Gaussian(R) 98 system (copyright 1998, Gaussian, Inc.),
 the Gaussian(R) 94 system (copyright 1995, Gaussian, Inc.),
 the Gaussian 92(TM) system (copyright 1992, Gaussian, Inc.),
 the Gaussian 90(TM) system (copyright 1990, Gaussian, Inc.),
 the Gaussian 88(TM) system (copyright 1988, Gaussian, Inc.),
 the Gaussian 86(TM) system (copyright 1986, Carnegie Mellon
 University), and the Gaussian 82(TM) system (copyright 1983,
 Carnegie Mellon University). Gaussian is a federally registered
 trademark of Gaussian, Inc.
  
 This software contains proprietary and confidential information,
 including trade secrets, belonging to Gaussian, Inc.
  
 This software is provided under written license and may be
 used, copied, transmitted, or stored only in accord with that
 written license.
  
 The following legend is applicable only to US Government
 contracts under FAR:
  
                    RESTRICTED RIGHTS LEGEND
  
 Use, reproduction and disclosure by the US Government is
 subject to restrictions as set forth in subparagraphs (a)
 and (c) of the Commercial Computer Software - Restricted
 Rights clause in FAR 52.227-19.
  
 Gaussian, Inc.
 340 Quinnipiac St., Bldg. 40, Wallingford CT 06492
  
  
 ---------------------------------------------------------------
 Warning -- This program may not be used in any manner that
 competes with the business of Gaussian, Inc. or will provide
 assistance to any competitor of Gaussian, Inc.  The licensee
 of this program is prohibited from giving any competitor of
 Gaussian, Inc. access to this program.  By using this program,
 the user acknowledges that Gaussian, Inc. is engaged in the
 business of creating and licensing software in the field of
 computational chemistry and represents and warrants to the
 licensee that it is not a competitor of Gaussian, Inc. and that
 it will not use this program in any manner prohibited above.
 ---------------------------------------------------------------
  

 Cite this work as:
 Gaussian 09, Revision B.01,
 M. J. Frisch, G. W. Trucks, H. B. Schlegel, G. E. Scuseria, 
 M. A. Robb, J. R. Cheeseman, G. Scalmani, V. Barone, B. Mennucci, 
 G. A. Petersson, H. Nakatsuji, M. Caricato, X. Li, H. P. Hratchian, 
 A. F. Izmaylov, J. Bloino, G. Zheng, J. L. Sonnenberg, M. Hada, 
 M. Ehara, K. Toyota, R. Fukuda, J. Hasegawa, M. Ishida, T. Nakajima, 
 Y. Honda, O. Kitao, H. Nakai, T. Vreven, J. A. Montgomery, Jr., 
 J. E. Peralta, F. Ogliaro, M. Bearpark, J. J. Heyd, E. Brothers, 
 K. N. Kudin, V. N. Staroverov, T. Keith, R. Kobayashi, J. Normand, 
 K. Raghavachari, A. Rendell, J. C. Burant, S. S. Iyengar, J. Tomasi, 
 M. Cossi, N. Rega, J. M. Millam, M. Klene, J. E. Knox, J. B. Cross, 
 V. Bakken, C. Adamo, J. Jaramillo, R. Gomperts, R. E. Stratmann, 
 O. Yazyev, A. J. Austin, R. Cammi, C. Pomelli, J. W. Ochterski, 
 R. L. Martin, K. Morokuma, V. G. Zakrzewski, G. A. Voth, 
 P. Salvador, J. J. Dannenberg, S. Dapprich, A. D. Daniels, 
 O. Farkas, J. B. Foresman, J. V. Ortiz, J. Cioslowski, 
 and D. J. Fox, Gaussian, Inc., Wallingford CT, 2010.
 
 ******************************************
 Gaussian 09:  EM64L-G09RevB.01 12-Aug-2010
                 1-Jun-2021 
 ******************************************
 %NProcShared=8
 Will use up to    8 processors via shared memory.
 %Chk=bond_forming_error_example.chk
 ---------------------
 #n RHF/6-31G(d,p) Opt
 ---------------------
 1/18=20,19=15,38=1/1,3;
 2/9=110,12=2,17=6,18=5,40=1/2;
 3/5=1,6=6,7=101,11=1,16=1,25=1,30=1,71=1,116=1/1,2,3;
 4//1;
 5/5=2,38=5/2;
 6/7=2,8=2,9=2,10=2,28=1/1;
 7//1,2,3,16;
 1/18=20,19=15/3(2);
 2/9=110/2;
 99//99;
 2/9=110/2;
 3/5=1,6=6,7=101,11=1,16=1,25=1,30=1,71=1,116=1/1,2,3;
 4/5=5,16=3/1;
 5/5=2,38=5/2;
 7//1,2,3,16;
 1/18=20,19=15/3(-5);
 2/9=110/2;
 6/7=2,8=2,9=2,10=2,19=2,28=1/1;
 99/9=1/99;
 -----
 Title
 -----
 Symbolic Z-matrix:
 Charge =  0 Multiplicity = 1
 C                    -1.74688   4.3171    0.54966 
 C                    -0.93752   3.23644   0.45347 
 C                     0.31236   3.04369  -0.32876 
 C                     1.37197   3.86939  -0.49483 
 C                     1.67292   5.18465   0.13655 
 C                    -1.7046    5.61651  -0.17758 
 H                    -2.58579   4.22149   1.23327 
 H                    -1.26447   2.35459   0.99703 
 H                     0.39581   2.07061  -0.80432 
 H                     2.15139   3.51184  -1.16184 
 C                    -1.02038   5.87357  -1.29718 
 H                    -2.33563   6.41059   0.21025 
 H                    -0.41555   5.13441  -1.79819 
 H                    -1.09071   6.85625  -1.75225 
 C                     1.08869   5.68928   1.22824 
 H                     2.48362   5.7592   -0.30144 
 H                     0.31854   5.16904   1.77541 
 H                     1.41423   6.65075   1.61203 
 

 GradGradGradGradGradGradGradGradGradGradGradGradGradGradGradGradGradGrad
 Berny optimization.
 Initialization pass.
                           ----------------------------
                           !    Initial Parameters    !
                           ! (Angstroms and Degrees)  !
 --------------------------                            --------------------------
 ! Name  Definition              Value          Derivative Info.                !
 --------------------------------------------------------------------------------
 ! R1    R(1,2)                  1.3536         estimate D2E/DX2                !
 ! R2    R(1,6)                  1.4897         estimate D2E/DX2                !
 ! R3    R(1,7)                  1.0864         estimate D2E/DX2                !
 ! R4    R(2,3)                  1.487          estimate D2E/DX2                !
 ! R5    R(2,8)                  1.0863         estimate D2E/DX2                !
 ! R6    R(3,4)                  1.3536         estimate D2E/DX2                !
 ! R7    R(3,9)                  1.0863         estimate D2E/DX2                !
 ! R8    R(4,5)                  1.4897         estimate D2E/DX2                !
 ! R9    R(4,10)                 1.0864         estimate D2E/DX2                !
 ! R10   R(5,15)                 1.3371         estimate D2E/DX2                !
 ! R11   R(5,16)                 1.0859         estimate D2E/DX2                !
 ! R12   R(6,11)                 1.3371         estimate D2E/DX2                !
 ! R13   R(6,12)                 1.0859         estimate D2E/DX2                !
 ! R14   R(11,13)                1.0785         estimate D2E/DX2                !
 ! R15   R(11,14)                1.0852         estimate D2E/DX2                !
 ! R16   R(15,17)                1.0785         estimate D2E/DX2                !
 ! R17   R(15,18)                1.0852         estimate D2E/DX2                !
 ! A1    A(2,1,6)              130.1466         estimate D2E/DX2                !
 ! A2    A(2,1,7)              115.861          estimate D2E/DX2                !
 ! A3    A(6,1,7)              113.946          estimate D2E/DX2                !
 ! A4    A(1,2,3)              130.0502         estimate D2E/DX2                !
 ! A5    A(1,2,8)              115.6326         estimate D2E/DX2                !
 ! A6    A(3,2,8)              114.2661         estimate D2E/DX2                !
 ! A7    A(2,3,4)              130.0501         estimate D2E/DX2                !
 ! A8    A(2,3,9)              114.2662         estimate D2E/DX2                !
 ! A9    A(4,3,9)              115.6326         estimate D2E/DX2                !
 ! A10   A(3,4,5)              130.1468         estimate D2E/DX2                !
 ! A11   A(3,4,10)             115.8614         estimate D2E/DX2                !
 ! A12   A(5,4,10)             113.9455         estimate D2E/DX2                !
 ! A13   A(4,5,15)             126.2285         estimate D2E/DX2                !
 ! A14   A(4,5,16)             116.5531         estimate D2E/DX2                !
 ! A15   A(15,5,16)            117.1191         estimate D2E/DX2                !
 ! A16   A(1,6,11)             126.2289         estimate D2E/DX2                !
 ! A17   A(1,6,12)             116.5524         estimate D2E/DX2                !
 ! A18   A(11,6,12)            117.1195         estimate D2E/DX2                !
 ! A19   A(6,11,13)            122.9701         estimate D2E/DX2                !
 ! A20   A(6,11,14)            119.4761         estimate D2E/DX2                !
 ! A21   A(13,11,14)           117.5255         estimate D2E/DX2                !
 ! A22   A(5,15,17)            122.9699         estimate D2E/DX2                !
 ! A23   A(5,15,18)            119.4756         estimate D2E/DX2                !
 ! A24   A(17,15,18)           117.5262         estimate D2E/DX2                !
 ! D1    D(6,1,2,3)              5.4761         estimate D2E/DX2                !
 ! D2    D(6,1,2,8)           -171.7429         estimate D2E/DX2                !
 ! D3    D(7,1,2,3)           -177.1813         estimate D2E/DX2                !
 ! D4    D(7,1,2,8)              5.5997         estimate D2E/DX2                !
 ! D5    D(2,1,6,11)            15.8889         estimate D2E/DX2                !
 ! D6    D(2,1,6,12)          -167.8558         estimate D2E/DX2                !
 ! D7    D(7,1,6,11)          -161.4946         estimate D2E/DX2                !
 ! D8    D(7,1,6,12)            14.7607         estimate D2E/DX2                !
 ! D9    D(1,2,3,4)             43.6116         estimate D2E/DX2                !
 ! D10   D(1,2,3,9)           -139.1389         estimate D2E/DX2                !
 ! D11   D(8,2,3,4)           -139.1387         estimate D2E/DX2                !
 ! D12   D(8,2,3,9)             38.1108         estimate D2E/DX2                !
 ! D13   D(2,3,4,5)              5.4754         estimate D2E/DX2                !
 ! D14   D(2,3,4,10)          -177.1804         estimate D2E/DX2                !
 ! D15   D(9,3,4,5)           -171.7434         estimate D2E/DX2                !
 ! D16   D(9,3,4,10)             5.6008         estimate D2E/DX2                !
 ! D17   D(3,4,5,15)            15.8901         estimate D2E/DX2                !
 ! D18   D(3,4,5,16)          -167.8562         estimate D2E/DX2                !
 ! D19   D(10,4,5,15)         -161.495          estimate D2E/DX2                !
 ! D20   D(10,4,5,16)           14.7587         estimate D2E/DX2                !
 ! D21   D(4,5,15,17)            0.2337         estimate D2E/DX2                !
 ! D22   D(4,5,15,18)          178.2499         estimate D2E/DX2                !
 ! D23   D(16,5,15,17)        -176.0012         estimate D2E/DX2                !
 ! D24   D(16,5,15,18)           2.015          estimate D2E/DX2                !
 ! D25   D(1,6,11,13)            0.2347         estimate D2E/DX2                !
 ! D26   D(1,6,11,14)          178.2498         estimate D2E/DX2                !
 ! D27   D(12,6,11,13)        -176.0017         estimate D2E/DX2                !
 ! D28   D(12,6,11,14)           2.0133         estimate D2E/DX2                !
 --------------------------------------------------------------------------------
 Trust Radius=3.00D-01 FncErr=1.00D-07 GrdErr=1.00D-07
 Number of steps in this run=     79 maximum allowed number of steps=    108.
 GradGradGradGradGradGradGradGradGradGradGradGradGradGradGradGradGradGrad

                          Input orientation:                          
 ---------------------------------------------------------------------
 Center     Atomic      Atomic             Coordinates (Angstroms)
 Number     Number       Type             X           Y           Z
 ---------------------------------------------------------------------
      1          6           0       -1.746880    4.317100    0.549660
      2          6           0       -0.937520    3.236440    0.453470
      3          6           0        0.312360    3.043690   -0.328760
      4          6           0        1.371970    3.869390   -0.494830
      5          6           0        1.672920    5.184650    0.136550
      6          6           0       -1.704600    5.616510   -0.177580
      7          1           0       -2.585790    4.221490    1.233270
      8          1           0       -1.264470    2.354590    0.997030
      9          1           0        0.395810    2.070610   -0.804320
     10          1           0        2.151390    3.511840   -1.161840
     11          6           0       -1.020380    5.873570   -1.297180
     12          1           0       -2.335630    6.410590    0.210250
     13          1           0       -0.415550    5.134410   -1.798190
     14          1           0       -1.090710    6.856250   -1.752250
     15          6           0        1.088690    5.689280    1.228240
     16          1           0        2.483620    5.759200   -0.301440
     17          1           0        0.318540    5.169040    1.775410
     18          1           0        1.414230    6.650750    1.612030
 ---------------------------------------------------------------------
                    Distance matrix (angstroms):
                    1          2          3          4          5
     1  C    0.000000
     2  C    1.353566   0.000000
     3  C    2.575590   1.487023   0.000000
     4  C    3.319432   2.575586   1.353563   0.000000
     5  C    3.552230   3.272668   2.579020   1.489671   0.000000
     6  C    1.489675   2.579025   3.272673   3.552233   3.419477
     7  H    1.086386   2.072488   3.496630   4.332917   4.501898
     8  H    2.069856   1.086284   2.172319   3.386898   4.168684
     9  H    3.386901   2.172318   1.086281   2.069851   3.494781
    10  H    4.332919   3.496632   2.072491   1.086388   2.170954
    11  C    2.522146   3.166401   3.274485   3.222397   3.127948
    12  H    2.201028   3.476938   4.317221   4.549850   4.192473
    13  H    2.820077   2.990772   2.657101   2.548382   2.847358
    14  H    3.489503   4.241662   4.304712   4.070286   3.741586
    15  C    3.222391   3.274480   3.166399   2.522145   1.337073
    16  H    4.549852   4.317222   3.476940   2.201033   1.085899
    17  H    2.548377   2.657095   2.990766   2.820070   2.126135
    18  H    4.070279   4.304707   4.241658   3.489500   2.096047
                    6          7          8          9         10
     6  C    0.000000
     7  H    2.170962   0.000000
     8  H    3.494788   2.299350   0.000000
     9  H    4.168685   4.203332   2.466178   0.000000
    10  H    4.501895   5.355467   4.203338   2.299353   0.000000
    11  C    1.337064   3.403389   4.207874   4.087910   3.956793
    12  H    1.085898   2.429261   4.268201   5.227384   5.515318
    13  H    2.126134   3.838374   4.032533   3.321589   3.102717
    14  H    2.096044   4.253299   5.277658   5.100065   4.695197
    15  C    3.127954   3.956796   4.087906   4.207868   3.403389
    16  H    4.192480   5.515325   5.227387   4.268200   2.429257
    17  H    2.847366   3.102725   3.321585   4.032524   3.838371
    18  H    3.741585   4.695202   5.100064   5.277652   4.253295
                   11         12         13         14         15
    11  C    0.000000
    12  H    2.071381   0.000000
    13  H    1.078512   3.057642   0.000000
    14  H    1.085217   2.366399   1.850050   0.000000
    15  C    3.295434   3.644525   3.424894   3.872328   0.000000
    16  H    3.644529   4.889919   3.322019   4.010512   2.071386
    17  H    3.424891   3.322016   3.648384   4.156567   1.078506
    18  H    3.872317   4.010500   4.156559   4.199445   1.085217
                   16         17         18
    16  H    0.000000
    17  H    3.057641   0.000000
    18  H    2.366395   1.850052   0.000000
 Stoichiometry    C8H10
 Framework group  C1[X(C8H10)]
 Deg. of freedom    48
 Full point group                 C1      NOp   1
 Largest Abelian subgroup         C1      NOp   1
 Largest concise Abelian subgroup C1      NOp   1
                         Standard orientation:                         
 ---------------------------------------------------------------------
 Center     Atomic      Atomic             Coordinates (Angstroms)
 Number     Number       Type             X           Y           Z
 ---------------------------------------------------------------------
      1          6           0        1.547867    0.551859    0.598965
      2          6           0        0.612276    1.513849    0.421802
      3          6           0       -0.612289    1.513844   -0.421808
      4          6           0       -1.547872    0.551849   -0.598963
      5          6           0       -1.708142   -0.767573    0.073763
      6          6           0        1.708151   -0.767562   -0.073767
      7          1           0        2.333187    0.780544    1.313954
      8          1           0        0.796490    2.449892    0.941323
      9          1           0       -0.796511    2.449881   -0.941330
     10          1           0       -2.333190    0.780514   -1.313965
     11          6           0        1.118059   -1.151934   -1.210337
     12          1           0        2.416102   -1.458200    0.374562
     13          1           0        0.448631   -0.516416   -1.768165
     14          1           0        1.335974   -2.132993   -1.619886
     15          6           0       -1.118050   -1.151933    1.210346
     16          1           0       -2.416096   -1.458219   -0.374553
     17          1           0       -0.448630   -0.516407    1.768164
     18          1           0       -1.335955   -2.132998    1.619888
 ---------------------------------------------------------------------
 Rotational constants (GHZ):      2.5167935      1.9448404      1.5303815
 Standard basis: 6-31G(d,p) (6D, 7F)
 There are   170 symmetry adapted basis functions of A   symmetry.
 Integral buffers will be    131072 words long.
 Raffenetti 1 integral format.
 Two-electron integral symmetry is turned on.
   170 basis functions,   294 primitive gaussians,   170 cartesian basis functions
    29 alpha electrons       29 beta electrons
       nuclear repulsion energy       334.2481289034 Hartrees.
 NAtoms=   18 NActive=   18 NUniq=   18 SFac= 1.00D+00 NAtFMM=   50 NAOKFM=F Big=F
 One-electron integrals computed using PRISM.
 NBasis=   170 RedAO= T  NBF=   170
 NBsUse=   170 1.00D-06 NBFU=   170
 Harris functional with IExCor=  205 diagonalized for initial guess.
 ExpMin= 1.61D-01 ExpMax= 3.05D+03 ExpMxC= 4.57D+02 IAcc=1 IRadAn=         1 AccDes= 0.00D+00
 HarFok:  IExCor=  205 AccDes= 0.00D+00 IRadAn=         1 IDoV= 1
 ScaDFX=  1.000000  1.000000  1.000000  1.000000
 FoFCou: FMM=F IPFlag=           0 FMFlag=      100000 FMFlg1=           0
         NFxFlg=           0 DoJE=T BraDBF=F KetDBF=T FulRan=T
         Omega=  0.000000  0.000000  1.000000  0.000000  0.000000 ICntrl=     500 IOpCl=  0
         NMat0=    1 NMatS0=    1 NMatT0=    0 NMatD0=    1 NMtDS0=    0 NMtDT0=    0
         I1Cent=           4 NGrid=           0.
 Petite list used in FoFCou.
 Initial guess orbital symmetries:
       Occupied  (A) (A) (A) (A) (A) (A) (A) (A) (A) (A) (A) (A)
                 (A) (A) (A) (A) (A) (A) (A) (A) (A) (A) (A) (A)
                 (A) (A) (A) (A) (A)
       Virtual   (A) (A) (A) (A) (A) (A) (A) (A) (A) (A) (A) (A)
                 (A) (A) (A) (A) (A) (A) (A) (A) (A) (A) (A) (A)
                 (A) (A) (A) (A) (A) (A) (A) (A) (A) (A) (A) (A)
                 (A) (A) (A) (A) (A) (A) (A) (A) (A) (A) (A) (A)
                 (A) (A) (A) (A) (A) (A) (A) (A) (A) (A) (A) (A)
                 (A) (A) (A) (A) (A) (A) (A) (A) (A) (A) (A) (A)
                 (A) (A) (A) (A) (A) (A) (A) (A) (A) (A) (A) (A)
                 (A) (A) (A) (A) (A) (A) (A) (A) (A) (A) (A) (A)
                 (A) (A) (A) (A) (A) (A) (A) (A) (A) (A) (A) (A)
                 (A) (A) (A) (A) (A) (A) (A) (A) (A) (A) (A) (A)
                 (A) (A) (A) (A) (A) (A) (A) (A) (A) (A) (A) (A)
                 (A) (A) (A) (A) (A) (A) (A) (A) (A)
 The electronic state of the initial guess is 1-A.
 Requested convergence on RMS density matrix=1.00D-08 within 128 cycles.
 Requested convergence on MAX density matrix=1.00D-06.
 Requested convergence on             energy=1.00D-06.
 No special actions if energy rises.
 Integral accuracy reduced to 1.0D-05 until final iterations.
 Initial convergence to 1.0D-05 achieved.  Increase integral accuracy.
 SCF Done:  E(RHF) =  -308.674710145     A.U. after   14 cycles
             Convg  =    0.3814D-08             -V/T =  2.0019

 **********************************************************************

            Population analysis using the SCF density.

 **********************************************************************

 Orbital symmetries:
       Occupied  (A) (A) (A) (A) (A) (A) (A) (A) (A) (A) (A) (A)
                 (A) (A) (A) (A) (A) (A) (A) (A) (A) (A) (A) (A)
                 (A) (A) (A) (A) (A)
       Virtual   (A) (A) (A) (A) (A) (A) (A) (A) (A) (A) (A) (A)
                 (A) (A) (A) (A) (A) (A) (A) (A) (A) (A) (A) (A)
                 (A) (A) (A) (A) (A) (A) (A) (A) (A) (A) (A) (A)
                 (A) (A) (A) (A) (A) (A) (A) (A) (A) (A) (A) (A)
                 (A) (A) (A) (A) (A) (A) (A) (A) (A) (A) (A) (A)
                 (A) (A) (A) (A) (A) (A) (A) (A) (A) (A) (A) (A)
                 (A) (A) (A) (A) (A) (A) (A) (A) (A) (A) (A) (A)
                 (A) (A) (A) (A) (A) (A) (A) (A) (A) (A) (A) (A)
                 (A) (A) (A) (A) (A) (A) (A) (A) (A) (A) (A) (A)
                 (A) (A) (A) (A) (A) (A) (A) (A) (A) (A) (A) (A)
                 (A) (A) (A) (A) (A) (A) (A) (A) (A) (A) (A) (A)
                 (A) (A) (A) (A) (A) (A) (A) (A) (A)
 The electronic state is 1-A.
 Alpha  occ. eigenvalues --  -11.23745 -11.23715 -11.23597 -11.23556 -11.22769
 Alpha  occ. eigenvalues --  -11.22768 -11.22097 -11.22097  -1.10062  -1.05677
 Alpha  occ. eigenvalues --   -1.01424  -0.96673  -0.85825  -0.80468  -0.74003
 Alpha  occ. eigenvalues --   -0.67936  -0.67165  -0.63616  -0.60661  -0.58623
 Alpha  occ. eigenvalues --   -0.56742  -0.53804  -0.51128  -0.49231  -0.47436
 Alpha  occ. eigenvalues --   -0.42892  -0.42529  -0.31955  -0.28965
 Alpha virt. eigenvalues --    0.08343   0.17187   0.23386   0.23728   0.25839
 Alpha virt. eigenvalues --    0.28796   0.30767   0.30956   0.31571   0.31876
 Alpha virt. eigenvalues --    0.34960   0.35193   0.35975   0.36093   0.44929
 Alpha virt. eigenvalues --    0.48954   0.50457   0.50929   0.57736   0.57844
 Alpha virt. eigenvalues --    0.64923   0.67153   0.69936   0.72619   0.74699
 Alpha virt. eigenvalues --    0.78052   0.79647   0.80139   0.83070   0.85461
 Alpha virt. eigenvalues --    0.87728   0.88065   0.91049   0.91168   0.94174
 Alpha virt. eigenvalues --    0.96719   0.96959   0.97988   1.05204   1.08686
 Alpha virt. eigenvalues --    1.09017   1.09608   1.10538   1.10642   1.12136
 Alpha virt. eigenvalues --    1.12987   1.13727   1.14617   1.18005   1.20560
 Alpha virt. eigenvalues --    1.26655   1.27290   1.28982   1.29829   1.30872
 Alpha virt. eigenvalues --    1.32644   1.33819   1.40245   1.43659   1.48254
 Alpha virt. eigenvalues --    1.57462   1.57819   1.63509   1.64888   1.68455
 Alpha virt. eigenvalues --    1.68862   1.70279   1.75325   1.81098   1.83626
 Alpha virt. eigenvalues --    1.84083   1.88523   1.96659   2.08520   2.14092
 Alpha virt. eigenvalues --    2.16468   2.18367   2.18598   2.21571   2.22268
 Alpha virt. eigenvalues --    2.24791   2.25443   2.28342   2.30013   2.32891
 Alpha virt. eigenvalues --    2.32912   2.38163   2.39986   2.47249   2.48751
 Alpha virt. eigenvalues --    2.53581   2.53670   2.64909   2.65388   2.70595
 Alpha virt. eigenvalues --    2.71150   2.72149   2.73511   2.74279   2.74405
 Alpha virt. eigenvalues --    2.76091   2.78894   2.78964   2.83002   2.84639
 Alpha virt. eigenvalues --    2.84957   2.87299   2.90780   2.91391   2.94450
 Alpha virt. eigenvalues --    2.97091   3.00916   3.01696   3.03345   3.11292
 Alpha virt. eigenvalues --    3.13932   3.16175   3.24238   3.31061   3.34174
 Alpha virt. eigenvalues --    3.42452   3.50725   3.61862   3.62738   3.64902
 Alpha virt. eigenvalues --    3.67125   3.68721   3.79417   3.84222   3.88440
 Alpha virt. eigenvalues --    3.93322   4.10417   4.17919   4.54868   4.63843
 Alpha virt. eigenvalues --    4.64390   4.79856   4.80445   4.87376   5.09129
 Alpha virt. eigenvalues --    5.13331
          Condensed to atoms (all electrons):
              1          2          3          4          5          6
     1  C    4.870102   0.654428  -0.050074  -0.001646   0.000980   0.394820
     2  C    0.654428   4.906419   0.375849  -0.050075  -0.002531  -0.052048
     3  C   -0.050074   0.375849   4.906417   0.654430  -0.052048  -0.002531
     4  C   -0.001646  -0.050075   0.654430   4.870098   0.394820   0.000980
     5  C    0.000980  -0.002531  -0.052048   0.394820   4.862814  -0.003791
     6  C    0.394820  -0.052048  -0.002531   0.000980  -0.003791   4.862806
     7  H    0.402638  -0.038143   0.003141  -0.000032  -0.000035  -0.040375
     8  H   -0.035654   0.401525  -0.039442   0.001996   0.000089   0.002904
     9  H    0.001996  -0.039442   0.401526  -0.035654   0.002904   0.000089
    10  H   -0.000032   0.003141  -0.038143   0.402638  -0.040376  -0.000035
    11  C   -0.051356  -0.006503  -0.005685  -0.014296  -0.006343   0.647392
    12  H   -0.036630   0.002709  -0.000023  -0.000061   0.000053   0.407612
    13  H   -0.003593   0.000063   0.003842   0.004717  -0.004166  -0.037447
    14  H    0.002832  -0.000016   0.000124   0.000295  -0.000001  -0.039578
    15  C   -0.014297  -0.005685  -0.006503  -0.051357   0.647390  -0.006343
    16  H   -0.000061  -0.000023   0.002709  -0.036630   0.407612   0.000053
    17  H    0.004717   0.003842   0.000063  -0.003593  -0.037447  -0.004166
    18  H    0.000295   0.000124  -0.000016   0.002832  -0.039579  -0.000001
              7          8          9         10         11         12
     1  C    0.402638  -0.035654   0.001996  -0.000032  -0.051356  -0.036630
     2  C   -0.038143   0.401525  -0.039442   0.003141  -0.006503   0.002709
     3  C    0.003141  -0.039442   0.401526  -0.038143  -0.005685  -0.000023
     4  C   -0.000032   0.001996  -0.035654   0.402638  -0.014296  -0.000061
     5  C   -0.000035   0.000089   0.002904  -0.040376  -0.006343   0.000053
     6  C   -0.040375   0.002904   0.000089  -0.000035   0.647392   0.407612
     7  H    0.544114  -0.005661  -0.000120   0.000002   0.002904  -0.002093
     8  H   -0.005661   0.538361  -0.000891  -0.000120  -0.000080  -0.000109
     9  H   -0.000120  -0.000891   0.538359  -0.005661  -0.000074   0.000001
    10  H    0.000002  -0.000120  -0.005661   0.544116   0.000131   0.000000
    11  C    0.002904  -0.000080  -0.000074   0.000131   4.911548  -0.041502
    12  H   -0.002093  -0.000109   0.000001   0.000000  -0.041502   0.541661
    13  H    0.000047  -0.000004   0.000105  -0.000026   0.406532   0.003151
    14  H   -0.000110   0.000003  -0.000001  -0.000005   0.403190  -0.005165
    15  C    0.000131  -0.000074  -0.000080   0.002904   0.001319   0.000278
    16  H    0.000000   0.000001  -0.000109  -0.002093   0.000278   0.000001
    17  H   -0.000026   0.000105  -0.000004   0.000047  -0.001085  -0.000068
    18  H   -0.000005  -0.000001   0.000003  -0.000110  -0.000123  -0.000008
             13         14         15         16         17         18
     1  C   -0.003593   0.002832  -0.014297  -0.000061   0.004717   0.000295
     2  C    0.000063  -0.000016  -0.005685  -0.000023   0.003842   0.000124
     3  C    0.003842   0.000124  -0.006503   0.002709   0.000063  -0.000016
     4  C    0.004717   0.000295  -0.051357  -0.036630  -0.003593   0.002832
     5  C   -0.004166  -0.000001   0.647390   0.407612  -0.037447  -0.039579
     6  C   -0.037447  -0.039578  -0.006343   0.000053  -0.004166  -0.000001
     7  H    0.000047  -0.000110   0.000131   0.000000  -0.000026  -0.000005
     8  H   -0.000004   0.000003  -0.000074   0.000001   0.000105  -0.000001
     9  H    0.000105  -0.000001  -0.000080  -0.000109  -0.000004   0.000003
    10  H   -0.000026  -0.000005   0.002904  -0.002093   0.000047  -0.000110
    11  C    0.406532   0.403190   0.001319   0.000278  -0.001085  -0.000123
    12  H    0.003151  -0.005165   0.000278   0.000001  -0.000068  -0.000008
    13  H    0.510614  -0.028057  -0.001085  -0.000068   0.000060  -0.000005
    14  H   -0.028057   0.543138  -0.000123  -0.000008  -0.000005  -0.000004
    15  C   -0.001085  -0.000123   4.911550  -0.041501   0.406532   0.403190
    16  H   -0.000068  -0.000008  -0.041501   0.541659   0.003151  -0.005165
    17  H    0.000060  -0.000005   0.406532   0.003151   0.510611  -0.028056
    18  H   -0.000005  -0.000004   0.403190  -0.005165  -0.028056   0.543137
 Mulliken atomic charges:
              1
     1  C   -0.139463
     2  C   -0.153633
     3  C   -0.153633
     4  C   -0.139461
     5  C   -0.130344
     6  C   -0.130340
     7  H    0.133623
     8  H    0.137052
     9  H    0.137053
    10  H    0.133623
    11  C   -0.246246
    12  H    0.130194
    13  H    0.145321
    14  H    0.123491
    15  C   -0.246245
    16  H    0.130195
    17  H    0.145322
    18  H    0.123491
 Sum of Mulliken atomic charges =   0.00000
 Mulliken charges with hydrogens summed into heavy atoms:
              1
     1  C   -0.005840
     2  C   -0.016581
     3  C   -0.016580
     4  C   -0.005838
     5  C   -0.000150
     6  C   -0.000146
    11  C    0.022566
    15  C    0.022568
 Sum of Mulliken charges with hydrogens summed into heavy atoms =   0.00000
 Electronic spatial extent (au):  <R**2>=            940.0428
 Charge=              0.0000 electrons
 Dipole moment (field-independent basis, Debye):
    X=              0.0000    Y=             -0.2320    Z=              0.0000  Tot=              0.2320
 Quadrupole moment (field-independent basis, Debye-Ang):
   XX=            -49.2421   YY=            -45.7087   ZZ=            -48.3022
   XY=              0.0000   XZ=              4.3076   YZ=              0.0000
 Traceless Quadrupole moment (field-independent basis, Debye-Ang):
   XX=             -1.4911   YY=              2.0423   ZZ=             -0.5512
   XY=              0.0000   XZ=              4.3076   YZ=              0.0000
 Octapole moment (field-independent basis, Debye-Ang**2):
  XXX=              0.0001  YYY=              1.0860  ZZZ=             -0.0001  XYY=              0.0000
  XXY=             -5.7490  XXZ=              0.0000  XZZ=              0.0000  YZZ=             -2.1188
  YYZ=              0.0000  XYZ=              3.8100
 Hexadecapole moment (field-independent basis, Debye-Ang**3):
 XXXX=           -611.4264 YYYY=           -419.6718 ZZZZ=           -252.7041 XXXY=              0.0003
 XXXZ=             35.5090 YYYX=              0.0001 YYYZ=              0.0000 ZZZX=              7.5332
 ZZZY=              0.0001 XXYY=           -168.6800 XXZZ=           -143.1762 YYZZ=           -107.6746
 XXYZ=              0.0002 YYXZ=              2.0205 ZZXY=             -0.0001
 N-N= 3.342481289034D+02 E-N=-1.386696539885D+03  KE= 3.080740420003D+02
 Calling FoFJK, ICntrl=      2127 FMM=F ISym2X=0 I1Cent= 0 IOpClX= 0 NMat=1 NMatS=1 NMatT=0.
 ***** Axes restored to original set *****
 -------------------------------------------------------------------
 Center     Atomic                   Forces (Hartrees/Bohr)
 Number     Number              X              Y              Z
 -------------------------------------------------------------------
      1        6           0.005471382   -0.011427799   -0.007272401
      2        6          -0.009328892    0.016697451    0.000380099
      3        6           0.013311005    0.013656507   -0.001490855
      4        6          -0.008158930   -0.009074842    0.008018658
      5        6          -0.006142646   -0.002552825    0.013964461
      6        6           0.005141515   -0.005050971   -0.013673811
      7        1           0.003531923   -0.000674514   -0.005015675
      8        1           0.003389210    0.004440589   -0.001485939
      9        1          -0.002116006    0.005257089    0.001129346
     10        1          -0.003540227    0.000620585    0.005019302
     11        6          -0.016494490    0.003056470    0.008158030
     12        1           0.003881007   -0.006046332    0.002125633
     13        1          -0.002994133    0.005969431    0.003365020
     14        1           0.000666069   -0.006507332    0.001773312
     15        6           0.016653922   -0.001893978   -0.008212691
     16        1          -0.005329808   -0.004979234   -0.001722208
     17        1           0.004397006    0.004736344   -0.003754925
     18        1          -0.002337909   -0.006226637   -0.001305355
 -------------------------------------------------------------------
 Cartesian Forces:  Max     0.016697451 RMS     0.007190552

 GradGradGradGradGradGradGradGradGradGradGradGradGradGradGradGradGradGrad
 Berny optimization.
 Internal  Forces:  Max     0.041646904 RMS     0.013556272
 Search for a local minimum.
 Step number   1 out of a maximum of   79
 All quantities printed in internal units (Hartrees-Bohrs-Radians)
 Mixed Optimization -- RFO/linear search
 Second derivative matrix not updated -- first step.
 ITU=  0
     Eigenvalues ---    0.00903   0.00903   0.00938   0.01820   0.01820
     Eigenvalues ---    0.01834   0.01834   0.01924   0.01924   0.02703
     Eigenvalues ---    0.02703   0.02921   0.02921   0.02925   0.02925
     Eigenvalues ---    0.15985   0.15985   0.15993   0.15993   0.15994
     Eigenvalues ---    0.15994   0.16000   0.16000   0.16000   0.16000
     Eigenvalues ---    0.22003   0.22003   0.22003   0.22003   0.22006
     Eigenvalues ---    0.22006   0.33485   0.33486   0.33778   0.35233
     Eigenvalues ---    0.35234   0.35246   0.35246   0.35291   0.35291
     Eigenvalues ---    0.35371   0.35371   0.36175   0.36175   0.54270
     Eigenvalues ---    0.54270   0.57866   0.57868
 RFO step:  Lambda=-5.56535302D-02 EMin= 9.02525803D-03
 Linear search not attempted -- first point.
 Maximum step size (   0.300) exceeded in Quadratic search.
    -- Step size scaled by   0.814
 Iteration  1 RMS(Cart)=  0.51810653 RMS(Int)=  0.02343503
 Iteration  2 RMS(Cart)=  0.06806090 RMS(Int)=  0.00078684
 Iteration  3 RMS(Cart)=  0.00183879 RMS(Int)=  0.00008451
 Iteration  4 RMS(Cart)=  0.00000140 RMS(Int)=  0.00008451
 Iteration  5 RMS(Cart)=  0.00000000 RMS(Int)=  0.00008451
 Variable       Old X    -DE/DX   Delta X   Delta X   Delta X     New X
                                 (Linear)    (Quad)   (Total)
    R1        2.55787  -0.01678   0.00000  -0.02283  -0.02283   2.53504
    R2        2.81508  -0.00861   0.00000  -0.01795  -0.01795   2.79712
    R3        2.05297  -0.00582   0.00000  -0.01162  -0.01162   2.04135
    R4        2.81007  -0.00040   0.00000  -0.00084  -0.00084   2.80923
    R5        2.05278  -0.00537   0.00000  -0.01071  -0.01071   2.04207
    R6        2.55786  -0.01678   0.00000  -0.02282  -0.02282   2.53504
    R7        2.05277  -0.00537   0.00000  -0.01070  -0.01070   2.04207
    R8        2.81507  -0.00861   0.00000  -0.01795  -0.01795   2.79712
    R9        2.05298  -0.00583   0.00000  -0.01162  -0.01162   2.04136
   R10        2.52670  -0.02029   0.00000  -0.02603  -0.02603   2.50067
   R11        2.05205  -0.00592   0.00000  -0.01179  -0.01179   2.04026
   R12        2.52669  -0.02028   0.00000  -0.02602  -0.02602   2.50066
   R13        2.05205  -0.00592   0.00000  -0.01179  -0.01179   2.04026
   R14        2.03809  -0.00733   0.00000  -0.01430  -0.01430   2.02379
   R15        2.05076  -0.00668   0.00000  -0.01328  -0.01328   2.03748
   R16        2.03808  -0.00733   0.00000  -0.01429  -0.01429   2.02379
   R17        2.05076  -0.00668   0.00000  -0.01328  -0.01328   2.03748
    A1        2.27149   0.03331   0.00000   0.09806   0.09789   2.36938
    A2        2.02216  -0.01698   0.00000  -0.05083  -0.05100   1.97115
    A3        1.98873  -0.01643   0.00000  -0.04867  -0.04885   1.93989
    A4        2.26980   0.04165   0.00000   0.12266   0.12249   2.39229
    A5        2.01817  -0.02031   0.00000  -0.05999  -0.06015   1.95801
    A6        1.99432  -0.02146   0.00000  -0.06425  -0.06442   1.92990
    A7        2.26980   0.04165   0.00000   0.12266   0.12249   2.39229
    A8        1.99432  -0.02146   0.00000  -0.06425  -0.06442   1.92990
    A9        2.01817  -0.02031   0.00000  -0.05999  -0.06016   1.95801
   A10        2.27149   0.03331   0.00000   0.09806   0.09789   2.36938
   A11        2.02216  -0.01699   0.00000  -0.05084  -0.05101   1.97115
   A12        1.98872  -0.01643   0.00000  -0.04867  -0.04884   1.93988
   A13        2.20310   0.01750   0.00000   0.05141   0.05134   2.25444
   A14        2.03423  -0.01284   0.00000  -0.04160  -0.04166   1.99257
   A15        2.04411  -0.00477   0.00000  -0.01119  -0.01127   2.03284
   A16        2.20311   0.01750   0.00000   0.05141   0.05134   2.25444
   A17        2.03422  -0.01284   0.00000  -0.04159  -0.04166   1.99256
   A18        2.04412  -0.00477   0.00000  -0.01119  -0.01127   2.03285
   A19        2.14623   0.00058   0.00000   0.00223   0.00222   2.14846
   A20        2.08525   0.00077   0.00000   0.00292   0.00292   2.08817
   A21        2.05121  -0.00133   0.00000  -0.00500  -0.00501   2.04620
   A22        2.14623   0.00058   0.00000   0.00223   0.00223   2.14845
   A23        2.08524   0.00077   0.00000   0.00293   0.00292   2.08817
   A24        2.05122  -0.00134   0.00000  -0.00501  -0.00501   2.04621
    D1        0.09558   0.00609   0.00000   0.05987   0.05984   0.15542
    D2       -2.99748   0.01014   0.00000   0.10533   0.10530  -2.89218
    D3       -3.09240   0.00224   0.00000   0.01656   0.01660  -3.07580
    D4        0.09773   0.00629   0.00000   0.06203   0.06205   0.15979
    D5        0.27731   0.00322   0.00000   0.04201   0.04190   0.31922
    D6       -2.92964   0.00091   0.00000   0.01545   0.01550  -2.91413
    D7       -2.81861   0.00706   0.00000   0.08478   0.08473  -2.73388
    D8        0.25762   0.00474   0.00000   0.05822   0.05833   0.31595
    D9        0.76117   0.01649   0.00000   0.20122   0.20123   0.96239
   D10       -2.42843   0.01249   0.00000   0.15627   0.15627  -2.27216
   D11       -2.42843   0.01249   0.00000   0.15627   0.15627  -2.27216
   D12        0.66516   0.00848   0.00000   0.11132   0.11132   0.77648
   D13        0.09556   0.00609   0.00000   0.05987   0.05985   0.15541
   D14       -3.09238   0.00224   0.00000   0.01656   0.01660  -3.07579
   D15       -2.99749   0.01014   0.00000   0.10534   0.10530  -2.89219
   D16        0.09775   0.00629   0.00000   0.06202   0.06205   0.15980
   D17        0.27733   0.00322   0.00000   0.04200   0.04190   0.31923
   D18       -2.92964   0.00091   0.00000   0.01545   0.01551  -2.91414
   D19       -2.81862   0.00706   0.00000   0.08479   0.08473  -2.73389
   D20        0.25759   0.00474   0.00000   0.05823   0.05834   0.31593
   D21        0.00408  -0.00227   0.00000  -0.02322  -0.02330  -0.01922
   D22        3.11105  -0.00174   0.00000  -0.01813  -0.01821   3.09284
   D23       -3.07180   0.00032   0.00000   0.00446   0.00454  -3.06726
   D24        0.03517   0.00085   0.00000   0.00955   0.00962   0.04479
   D25        0.00410  -0.00227   0.00000  -0.02322  -0.02330  -0.01920
   D26        3.11105  -0.00174   0.00000  -0.01813  -0.01821   3.09284
   D27       -3.07181   0.00032   0.00000   0.00446   0.00454  -3.06727
   D28        0.03514   0.00085   0.00000   0.00956   0.00963   0.04477
         Item               Value     Threshold  Converged?
 Maximum Force            0.041647     0.000450     NO 
 RMS     Force            0.013556     0.000300     NO 
 Maximum Displacement     1.666440     0.001800     NO 
 RMS     Displacement     0.529628     0.001200     NO 
 Predicted change in Energy=-3.395943D-02
 GradGradGradGradGradGradGradGradGradGradGradGradGradGradGradGradGradGrad

                          Input orientation:                          
 ---------------------------------------------------------------------
 Center     Atomic      Atomic             Coordinates (Angstroms)
 Number     Number       Type             X           Y           Z
 ---------------------------------------------------------------------
      1          6           0       -1.918961    4.335076    0.342924
      2          6           0       -0.964187    3.392879    0.358987
      3          6           0        0.379338    3.194353   -0.245536
      4          6           0        1.544813    3.857241   -0.288310
      5          6           0        2.113246    5.047055    0.384102
      6          6           0       -2.167832    5.579607   -0.418732
      7          1           0       -2.748722    4.104799    0.995138
      8          1           0       -1.273037    2.508094    0.897043
      9          1           0        0.444595    2.223505   -0.715569
     10          1           0        2.280980    3.374550   -0.914396
     11          6           0       -1.645004    5.974655   -1.568382
     12          1           0       -2.943559    6.204771   -0.002696
     13          1           0       -0.917852    5.402345   -2.107489
     14          1           0       -1.972552    6.900702   -2.012950
     15          6           0        1.720801    5.645203    1.497349
     16          1           0        3.019939    5.419519   -0.068497
     17          1           0        0.875831    5.320000    2.069355
     18          1           0        2.280163    6.485047    1.877176
 ---------------------------------------------------------------------
                    Distance matrix (angstroms):
                    1          2          3          4          5
     1  C    0.000000
     2  C    1.341486   0.000000
     3  C    2.632434   1.486580   0.000000
     4  C    3.553099   2.632434   1.341486   0.000000
     5  C    4.094790   3.493927   2.614458   1.480173   0.000000
     6  C    1.480174   2.614458   3.493925   4.094789   4.388142
     7  H    1.080238   2.023878   3.486107   4.488092   4.989985
     8  H    2.015472   1.080619   2.122917   3.341487   4.263372
     9  H    3.341487   2.122916   1.080618   2.015471   3.459207
    10  H    4.488092   3.486108   2.023880   1.080239   2.124031
    11  C    2.533054   3.292996   3.684828   4.036949   4.335560
    12  H    2.159864   3.457667   4.490348   5.073259   5.202037
    13  H    2.854086   3.181761   3.166197   3.429502   3.939774
    14  H    3.483598   4.352896   4.732036   4.960736   5.086808
    15  C    4.036954   3.684832   3.292998   2.533053   1.323296
    16  H    5.073264   4.490353   3.457670   2.159867   1.079660
    17  H    3.429505   3.166200   3.181761   2.854082   2.108499
    18  H    4.960740   4.732040   4.352897   3.483595   2.079651
                    6          7          8          9         10
     6  C    0.000000
     7  H    2.124034   0.000000
     8  H    3.459207   2.176405   0.000000
     9  H    4.263369   4.082041   2.373134   0.000000
    10  H    4.989979   5.429317   4.082045   2.176407   0.000000
    11  C    1.323294   3.359492   4.270096   4.377767   4.754113
    12  H    1.079660   2.333134   4.155188   5.276197   6.011418
    13  H    2.108501   3.829100   4.186891   3.728101   3.970888
    14  H    2.079653   4.179486   5.315297   5.422359   5.633214
    15  C    4.335567   4.754124   4.377771   4.270096   3.359491
    16  H    5.202044   6.011427   5.276201   4.155190   2.333132
    17  H    3.939779   3.970899   3.728104   4.186889   3.829097
    18  H    5.086814   5.633228   5.422365   5.315296   4.179482
                   11         12         13         14         15
    11  C    0.000000
    12  H    2.047089   0.000000
    13  H    1.070945   3.029444   0.000000
    14  H    1.078190   2.338439   1.834776   0.000000
    15  C    4.564634   4.931481   4.473961   5.247794   0.000000
    16  H    4.931482   6.015335   4.434409   5.558756   2.047087
    17  H    4.473959   4.434406   4.546439   5.222751   1.070944
    18  H    5.247790   5.558754   5.222748   5.778532   1.078190
                   16         17         18
    16  H    0.000000
    17  H    3.029440   0.000000
    18  H    2.338431   1.834779   0.000000
 Stoichiometry    C8H10
 Framework group  C1[X(C8H10)]
 Deg. of freedom    48
 Full point group                 C1      NOp   1
 Largest Abelian subgroup         C1      NOp   1
 Largest concise Abelian subgroup C1      NOp   1
                         Standard orientation:                         
 ---------------------------------------------------------------------
 Center     Atomic      Atomic             Coordinates (Angstroms)
 Number     Number       Type             X           Y           Z
 ---------------------------------------------------------------------
      1          6           0        1.596323    0.565918    0.779671
      2          6           0        0.571034    1.375881    0.475816
      3          6           0       -0.571029    1.375880   -0.475820
      4          6           0       -1.596320    0.565919   -0.779670
      5          6           0       -2.184892   -0.662508   -0.200476
      6          6           0        2.184893   -0.662509    0.200475
      7          1           0        2.185085    0.925702    1.610832
      8          1           0        0.617626    2.312276    1.013152
      9          1           0       -0.617621    2.312273   -1.013158
     10          1           0       -2.185077    0.925694   -1.610840
     11          6           0        2.043665   -1.163700   -1.016065
     12          1           0        2.885016   -1.165936    0.850133
     13          1           0        1.429520   -0.710796   -1.767482
     14          1           0        2.584400   -2.054810   -1.291788
     15          6           0       -2.043671   -1.163693    1.016069
     16          1           0       -2.885024   -1.165931   -0.850127
     17          1           0       -1.429525   -0.710788    1.767482
     18          1           0       -2.584408   -2.054803    1.291788
 ---------------------------------------------------------------------
 Rotational constants (GHZ):      2.7305596      1.2868534      1.1244123
 Standard basis: 6-31G(d,p) (6D, 7F)
 There are   170 symmetry adapted basis functions of A   symmetry.
 Integral buffers will be    131072 words long.
 Raffenetti 1 integral format.
 Two-electron integral symmetry is turned on.
   170 basis functions,   294 primitive gaussians,   170 cartesian basis functions
    29 alpha electrons       29 beta electrons
       nuclear repulsion energy       316.6445030402 Hartrees.
 NAtoms=   18 NActive=   18 NUniq=   18 SFac= 1.00D+00 NAtFMM=   50 NAOKFM=F Big=F
 One-electron integrals computed using PRISM.
 NBasis=   170 RedAO= T  NBF=   170
 NBsUse=   170 1.00D-06 NBFU=   170
 Initial guess read from the read-write file.
 B after Tr=     0.000000    0.000000    0.000000
         Rot=    1.000000    0.000000    0.000000    0.000000 Ang=   0.00 deg.
 Initial guess orbital symmetries:
       Occupied  (A) (A) (A) (A) (A) (A) (A) (A) (A) (A) (A) (A)
                 (A) (A) (A) (A) (A) (A) (A) (A) (A) (A) (A) (A)
                 (A) (A) (A) (A) (A)
       Virtual   (A) (A) (A) (A) (A) (A) (A) (A) (A) (A) (A) (A)
                 (A) (A) (A) (A) (A) (A) (A) (A) (A) (A) (A) (A)
                 (A) (A) (A) (A) (A) (A) (A) (A) (A) (A) (A) (A)
                 (A) (A) (A) (A) (A) (A) (A) (A) (A) (A) (A) (A)
                 (A) (A) (A) (A) (A) (A) (A) (A) (A) (A) (A) (A)
                 (A) (A) (A) (A) (A) (A) (A) (A) (A) (A) (A) (A)
                 (A) (A) (A) (A) (A) (A) (A) (A) (A) (A) (A) (A)
                 (A) (A) (A) (A) (A) (A) (A) (A) (A) (A) (A) (A)
                 (A) (A) (A) (A) (A) (A) (A) (A) (A) (A) (A) (A)
                 (A) (A) (A) (A) (A) (A) (A) (A) (A) (A) (A) (A)
                 (A) (A) (A) (A) (A) (A) (A) (A) (A) (A) (A) (A)
                 (A) (A) (A) (A) (A) (A) (A) (A) (A)
 Harris functional with IExCor=  205 diagonalized for initial guess.
 ExpMin= 1.61D-01 ExpMax= 3.05D+03 ExpMxC= 4.57D+02 IAcc=1 IRadAn=         1 AccDes= 0.00D+00
 HarFok:  IExCor=  205 AccDes= 0.00D+00 IRadAn=         1 IDoV= 1
 ScaDFX=  1.000000  1.000000  1.000000  1.000000
 FoFCou: FMM=F IPFlag=           0 FMFlag=      100000 FMFlg1=           0
         NFxFlg=           0 DoJE=T BraDBF=F KetDBF=T FulRan=T
         Omega=  0.000000  0.000000  1.000000  0.000000  0.000000 ICntrl=     500 IOpCl=  0
         NMat0=    1 NMatS0=    1 NMatT0=    0 NMatD0=    1 NMtDS0=    0 NMtDT0=    0
         I1Cent=           4 NGrid=           0.
 Petite list used in FoFCou.
 Requested convergence on RMS density matrix=1.00D-08 within 128 cycles.
 Requested convergence on MAX density matrix=1.00D-06.
 Requested convergence on             energy=1.00D-06.
 No special actions if energy rises.
 Integral accuracy reduced to 1.0D-05 until final iterations.
 Initial convergence to 1.0D-05 achieved.  Increase integral accuracy.
 SCF Done:  E(RHF) =  -308.675141287     A.U. after   14 cycles
             Convg  =    0.6981D-08             -V/T =  2.0013
 Calling FoFJK, ICntrl=      2127 FMM=F ISym2X=0 I1Cent= 0 IOpClX= 0 NMat=1 NMatS=1 NMatT=0.
 ***** Axes restored to original set *****
 -------------------------------------------------------------------
 Center     Atomic                   Forces (Hartrees/Bohr)
 Number     Number              X              Y              Z
 -------------------------------------------------------------------
      1        6           0.002434163   -0.005541710   -0.002965904
      2        6           0.000622830    0.007875526    0.006296702
      3        6           0.001368517    0.007295952   -0.006851966
      4        6          -0.003751334   -0.004498057    0.003331318
      5        6          -0.006536040    0.002561176   -0.001076891
      6        6           0.006985473    0.000860509    0.000955455
      7        1          -0.001209315   -0.001777740   -0.003230977
      8        1           0.003851535    0.001009975    0.004793794
      9        1          -0.003506160    0.001620352   -0.004890609
     10        1           0.000740276   -0.001792548    0.003362601
     11        6          -0.001977925   -0.000106215    0.001638573
     12        1           0.002056390   -0.000852660    0.003188004
     13        1           0.003835161   -0.001317199   -0.000130594
     14        1           0.001223223   -0.002120509   -0.000465422
     15        6           0.001869160   -0.000730053   -0.001611474
     16        1          -0.002237330   -0.000521018   -0.003138587
     17        1          -0.004044353   -0.000271172    0.000189850
     18        1          -0.001724270   -0.001694609    0.000606127
 -------------------------------------------------------------------
 Cartesian Forces:  Max     0.007875526 RMS     0.003312343

 GradGradGradGradGradGradGradGradGradGradGradGradGradGradGradGradGradGrad
 Berny optimization.
 Using GEDIIS/GDIIS optimizer.
 Internal  Forces:  Max     0.025237243 RMS     0.008399851
 Search for a local minimum.
 Step number   2 out of a maximum of   79
 All quantities printed in internal units (Hartrees-Bohrs-Radians)
 Mixed Optimization -- RFO/linear search
 Update second derivatives using D2CorX and points    1    2
 DE= -4.31D-04 DEPred=-3.40D-02 R= 1.27D-02
 Trust test= 1.27D-02 RLast= 5.05D-01 DXMaxT set to 1.50D-01
 ITU= -1  0
 Use linear search instead of GDIIS.
 Linear search step of   0.175 exceeds DXMaxT=   0.150 but not scaled.
 Quartic linear search produced a step of -0.58416.
 Iteration  1 RMS(Cart)=  0.27956875 RMS(Int)=  0.00636232
 Iteration  2 RMS(Cart)=  0.03449613 RMS(Int)=  0.00012439
 Iteration  3 RMS(Cart)=  0.00031820 RMS(Int)=  0.00001935
 Iteration  4 RMS(Cart)=  0.00000004 RMS(Int)=  0.00001935
 Variable       Old X    -DE/DX   Delta X   Delta X   Delta X     New X
                                 (Linear)    (Quad)   (Total)
    R1        2.53504  -0.01711   0.01334   0.00000   0.01334   2.54838
    R2        2.79712  -0.00768   0.01049   0.00000   0.01049   2.80761
    R3        2.04135  -0.00064   0.00679   0.00000   0.00679   2.04814
    R4        2.80923  -0.01227   0.00049   0.00000   0.00049   2.80972
    R5        2.04207   0.00046   0.00625   0.00000   0.00625   2.04833
    R6        2.53504  -0.01711   0.01333   0.00000   0.01333   2.54837
    R7        2.04207   0.00046   0.00625   0.00000   0.00625   2.04832
    R8        2.79712  -0.00768   0.01048   0.00000   0.01048   2.80761
    R9        2.04136  -0.00064   0.00679   0.00000   0.00679   2.04814
   R10        2.50067  -0.00075   0.01521   0.00000   0.01521   2.51587
   R11        2.04026  -0.00074   0.00689   0.00000   0.00689   2.04715
   R12        2.50066  -0.00075   0.01520   0.00000   0.01520   2.51586
   R13        2.04026  -0.00074   0.00689   0.00000   0.00689   2.04715
   R14        2.02379   0.00337   0.00835   0.00000   0.00835   2.03215
   R15        2.03748  -0.00200   0.00776   0.00000   0.00776   2.04524
   R16        2.02379   0.00337   0.00835   0.00000   0.00835   2.03214
   R17        2.03748  -0.00200   0.00776   0.00000   0.00776   2.04524
    A1        2.36938  -0.02197  -0.05718   0.00000  -0.05715   2.31223
    A2        1.97115   0.01080   0.02979   0.00000   0.02983   2.00099
    A3        1.93989   0.01119   0.02853   0.00000   0.02857   1.96846
    A4        2.39229  -0.02524  -0.07155   0.00000  -0.07151   2.32078
    A5        1.95801   0.01482   0.03514   0.00000   0.03518   1.99319
    A6        1.92990   0.01044   0.03763   0.00000   0.03767   1.96757
    A7        2.39229  -0.02524  -0.07155   0.00000  -0.07152   2.32078
    A8        1.92990   0.01044   0.03763   0.00000   0.03767   1.96757
    A9        1.95801   0.01482   0.03514   0.00000   0.03518   1.99319
   A10        2.36938  -0.02197  -0.05718   0.00000  -0.05715   2.31224
   A11        1.97115   0.01080   0.02980   0.00000   0.02983   2.00099
   A12        1.93988   0.01119   0.02853   0.00000   0.02857   1.96845
   A13        2.25444  -0.00876  -0.02999   0.00000  -0.02997   2.22447
   A14        1.99257   0.00157   0.02434   0.00000   0.02435   2.01693
   A15        2.03284   0.00728   0.00658   0.00000   0.00660   2.03945
   A16        2.25444  -0.00876  -0.02999   0.00000  -0.02997   2.22447
   A17        1.99256   0.00157   0.02434   0.00000   0.02435   2.01692
   A18        2.03285   0.00728   0.00658   0.00000   0.00660   2.03945
   A19        2.14846  -0.00194  -0.00130   0.00000  -0.00130   2.14716
   A20        2.08817   0.00245  -0.00171   0.00000  -0.00170   2.08647
   A21        2.04620  -0.00047   0.00293   0.00000   0.00293   2.04912
   A22        2.14845  -0.00194  -0.00130   0.00000  -0.00130   2.14716
   A23        2.08817   0.00245  -0.00171   0.00000  -0.00171   2.08646
   A24        2.04621  -0.00047   0.00293   0.00000   0.00293   2.04914
    D1        0.15542  -0.00546  -0.03496   0.00000  -0.03495   0.12047
    D2       -2.89218  -0.00709  -0.06151   0.00000  -0.06150  -2.95368
    D3       -3.07580  -0.00416  -0.00970   0.00000  -0.00971  -3.08550
    D4        0.15979  -0.00579  -0.03625   0.00000  -0.03625   0.12353
    D5        0.31922  -0.00060  -0.02448   0.00000  -0.02445   0.29476
    D6       -2.91413   0.00112  -0.00906   0.00000  -0.00907  -2.92320
    D7       -2.73388  -0.00190  -0.04949   0.00000  -0.04948  -2.78337
    D8        0.31595  -0.00019  -0.03407   0.00000  -0.03410   0.28185
    D9        0.96239  -0.00396  -0.11755   0.00000  -0.11755   0.84484
   D10       -2.27216  -0.00215  -0.09129   0.00000  -0.09129  -2.36345
   D11       -2.27216  -0.00215  -0.09129   0.00000  -0.09129  -2.36344
   D12        0.77648  -0.00034  -0.06503   0.00000  -0.06502   0.71145
   D13        0.15541  -0.00545  -0.03496   0.00000  -0.03495   0.12046
   D14       -3.07579  -0.00416  -0.00969   0.00000  -0.00970  -3.08549
   D15       -2.89219  -0.00709  -0.06151   0.00000  -0.06150  -2.95369
   D16        0.15980  -0.00579  -0.03625   0.00000  -0.03625   0.12355
   D17        0.31923  -0.00060  -0.02447   0.00000  -0.02445   0.29478
   D18       -2.91414   0.00112  -0.00906   0.00000  -0.00907  -2.92321
   D19       -2.73389  -0.00190  -0.04950   0.00000  -0.04948  -2.78337
   D20        0.31593  -0.00019  -0.03408   0.00000  -0.03411   0.28182
   D21       -0.01922  -0.00108   0.01361   0.00000   0.01363  -0.00559
   D22        3.09284   0.00039   0.01064   0.00000   0.01066   3.10349
   D23       -3.06726  -0.00255  -0.00265   0.00000  -0.00267  -3.06993
   D24        0.04479  -0.00108  -0.00562   0.00000  -0.00564   0.03915
   D25       -0.01920  -0.00108   0.01361   0.00000   0.01363  -0.00557
   D26        3.09284   0.00039   0.01064   0.00000   0.01065   3.10349
   D27       -3.06727  -0.00255  -0.00265   0.00000  -0.00267  -3.06994
   D28        0.04477  -0.00108  -0.00563   0.00000  -0.00565   0.03913
         Item               Value     Threshold  Converged?
 Maximum Force            0.025237     0.000450     NO 
 RMS     Force            0.008400     0.000300     NO 
 Maximum Displacement     0.966365     0.001800     NO 
 RMS     Displacement     0.306913     0.001200     NO 
 Predicted change in Energy=-8.659245D-04
 GradGradGradGradGradGradGradGradGradGradGradGradGradGradGradGradGradGrad

                          Input orientation:                          
 ---------------------------------------------------------------------
 Center     Atomic      Atomic             Coordinates (Angstroms)
 Number     Number       Type             X           Y           Z
 ---------------------------------------------------------------------
      1          6           0       -1.826961    4.315119    0.464247
      2          6           0       -0.952042    3.290126    0.414524
      3          6           0        0.340595    3.094479   -0.293644
      4          6           0        1.449637    3.852990   -0.408744
      5          6           0        1.865952    5.125811    0.234666
      6          6           0       -1.907194    5.602508   -0.273024
      7          1           0       -2.667427    4.160058    1.130775
      8          1           0       -1.272125    2.406122    0.953954
      9          1           0        0.416894    2.121390   -0.764996
     10          1           0        2.215398    3.438984   -1.054422
     11          6           0       -1.281596    5.929358   -1.401854
     12          1           0       -2.607101    6.326763    0.125890
     13          1           0       -0.616449    5.260421   -1.918104
     14          1           0       -1.461174    6.897819   -1.850404
     15          6           0        1.356438    5.683240    1.331089
     16          1           0        2.725095    5.614529   -0.208703
     17          1           0        0.546255    5.247306    1.887836
     18          1           0        1.783804    6.602379    1.710434
 ---------------------------------------------------------------------
                    Distance matrix (angstroms):
                    1          2          3          4          5
     1  C    0.000000
     2  C    1.348543   0.000000
     3  C    2.600512   1.486838   0.000000
     4  C    3.422247   2.600509   1.348541   0.000000
     5  C    3.787815   3.367963   2.594636   1.485722   0.000000
     6  C    1.485724   2.594639   3.367965   3.787816   3.836876
     7  H    1.083829   2.052400   3.494657   4.406203   4.720934
     8  H    2.047419   1.083928   2.152022   3.370217   4.214452
     9  H    3.370218   2.152021   1.083926   2.047416   3.482189
    10  H    4.406205   3.494658   2.052402   1.083831   2.151568
    11  C    2.526960   3.220774   3.449083   3.571723   3.637436
    12  H    2.183991   3.470403   4.394608   4.781476   4.632744
    13  H    2.834525   3.071781   2.871604   2.920230   3.288594
    14  H    3.487370   4.290054   4.487234   4.452212   4.307818
    15  C    3.571722   3.449082   3.220773   2.526959   1.331344
    16  H    4.781480   4.394611   3.470405   2.183995   1.083305
    17  H    2.920228   2.871601   3.071777   2.834519   2.118805
    18  H    4.452210   4.487233   4.290053   3.487367   2.089233
                    6          7          8          9         10
     6  C    0.000000
     7  H    2.151573   0.000000
     8  H    3.482193   2.248205   0.000000
     9  H    4.214452   4.154895   2.426653   0.000000
    10  H    4.720931   5.397871   4.154900   2.248208   0.000000
    11  C    1.331338   3.386024   4.238291   4.217947   4.307161
    12  H    1.083304   2.389151   4.223657   5.255795   5.743597
    13  H    2.118805   3.835749   4.101908   3.500139   3.476052
    14  H    2.089232   4.223483   5.298632   5.245905   5.110216
    15  C    3.637442   4.307168   4.217947   4.238289   3.386024
    16  H    4.632752   5.743604   5.255799   4.223657   2.389148
    17  H    3.288601   3.476061   3.500138   4.101902   3.835746
    18  H    4.307820   5.110225   5.245907   5.298628   4.223478
                   11         12         13         14         15
    11  C    0.000000
    12  H    2.061285   0.000000
    13  H    1.075365   3.045930   0.000000
    14  H    1.082295   2.354781   1.843696   0.000000
    15  C    3.806412   4.192406   3.824698   4.419959   0.000000
    16  H    4.192410   5.389949   3.770061   4.676202   2.061288
    17  H    3.824695   3.770057   3.979602   4.552845   1.075361
    18  H    4.419951   4.676194   4.552840   4.826669   1.082295
                   16         17         18
    16  H    0.000000
    17  H    3.045928   0.000000
    18  H    2.354775   1.843699   0.000000
 Stoichiometry    C8H10
 Framework group  C1[X(C8H10)]
 Deg. of freedom    48
 Full point group                 C1      NOp   1
 Largest Abelian subgroup         C1      NOp   1
 Largest concise Abelian subgroup C1      NOp   1
                         Standard orientation:                         
 ---------------------------------------------------------------------
 Center     Atomic      Atomic             Coordinates (Angstroms)
 Number     Number       Type             X           Y           Z
 ---------------------------------------------------------------------
      1          6           0        1.556436    0.566612    0.710951
      2          6           0        0.584021    1.466609    0.459989
      3          6           0       -0.584022    1.466607   -0.459992
      4          6           0       -1.556436    0.566611   -0.710949
      5          6           0       -1.917083   -0.725330   -0.072050
      6          6           0        1.917086   -0.725328    0.072047
      7          1           0        2.246493    0.853782    1.495834
      8          1           0        0.697655    2.403741    0.992690
      9          1           0       -0.697657    2.403736   -0.992694
     10          1           0       -2.246489    0.853768   -1.495843
     11          6           0        1.536470   -1.171559   -1.123140
     12          1           0        2.622448   -1.337422    0.621004
     13          1           0        0.891741   -0.614017   -1.778793
     14          1           0        1.906396   -2.124082   -1.479812
     15          6           0       -1.536471   -1.171554    1.123146
     16          1           0       -2.622453   -1.337424   -0.620998
     17          1           0       -0.891743   -0.614010    1.778792
     18          1           0       -1.906394   -2.124082    1.479811
 ---------------------------------------------------------------------
 Rotational constants (GHZ):      2.5642887      1.6260244      1.3419027
 Standard basis: 6-31G(d,p) (6D, 7F)
 There are   170 symmetry adapted basis functions of A   symmetry.
 Integral buffers will be    131072 words long.
 Raffenetti 1 integral format.
 Two-electron integral symmetry is turned on.
   170 basis functions,   294 primitive gaussians,   170 cartesian basis functions
    29 alpha electrons       29 beta electrons
       nuclear repulsion energy       325.7121762703 Hartrees.
 NAtoms=   18 NActive=   18 NUniq=   18 SFac= 1.00D+00 NAtFMM=   50 NAOKFM=F Big=F
 One-electron integrals computed using PRISM.
 NBasis=   170 RedAO= T  NBF=   170
 NBsUse=   170 1.00D-06 NBFU=   170
 Initial guess read from the read-write file.
 B after Tr=     0.000000    0.000000    0.000000
         Rot=    1.000000    0.000000    0.000000    0.000000 Ang=   0.00 deg.
 Initial guess orbital symmetries:
       Occupied  (A) (A) (A) (A) (A) (A) (A) (A) (A) (A) (A) (A)
                 (A) (A) (A) (A) (A) (A) (A) (A) (A) (A) (A) (A)
                 (A) (A) (A) (A) (A)
       Virtual   (A) (A) (A) (A) (A) (A) (A) (A) (A) (A) (A) (A)
                 (A) (A) (A) (A) (A) (A) (A) (A) (A) (A) (A) (A)
                 (A) (A) (A) (A) (A) (A) (A) (A) (A) (A) (A) (A)
                 (A) (A) (A) (A) (A) (A) (A) (A) (A) (A) (A) (A)
                 (A) (A) (A) (A) (A) (A) (A) (A) (A) (A) (A) (A)
                 (A) (A) (A) (A) (A) (A) (A) (A) (A) (A) (A) (A)
                 (A) (A) (A) (A) (A) (A) (A) (A) (A) (A) (A) (A)
                 (A) (A) (A) (A) (A) (A) (A) (A) (A) (A) (A) (A)
                 (A) (A) (A) (A) (A) (A) (A) (A) (A) (A) (A) (A)
                 (A) (A) (A) (A) (A) (A) (A) (A) (A) (A) (A) (A)
                 (A) (A) (A) (A) (A) (A) (A) (A) (A) (A) (A) (A)
                 (A) (A) (A) (A) (A) (A) (A) (A) (A)
 Harris functional with IExCor=  205 diagonalized for initial guess.
 ExpMin= 1.61D-01 ExpMax= 3.05D+03 ExpMxC= 4.57D+02 IAcc=1 IRadAn=         1 AccDes= 0.00D+00
 HarFok:  IExCor=  205 AccDes= 0.00D+00 IRadAn=         1 IDoV= 1
 ScaDFX=  1.000000  1.000000  1.000000  1.000000
 FoFCou: FMM=F IPFlag=           0 FMFlag=      100000 FMFlg1=           0
         NFxFlg=           0 DoJE=T BraDBF=F KetDBF=T FulRan=T
         Omega=  0.000000  0.000000  1.000000  0.000000  0.000000 ICntrl=     500 IOpCl=  0
         NMat0=    1 NMatS0=    1 NMatT0=    0 NMatD0=    1 NMtDS0=    0 NMtDT0=    0
         I1Cent=           4 NGrid=           0.
 Petite list used in FoFCou.
 Requested convergence on RMS density matrix=1.00D-08 within 128 cycles.
 Requested convergence on MAX density matrix=1.00D-06.
 Requested convergence on             energy=1.00D-06.
 No special actions if energy rises.
 Integral accuracy reduced to 1.0D-05 until final iterations.
 DSYEVD returned Info=       22058 IAlg= 4 N=   170 NDim=   170 NE2=      196841 trying DSYEV.
 Initial convergence to 1.0D-05 achieved.  Increase integral accuracy.
 SCF Done:  E(RHF) =  -308.682366665     A.U. after   14 cycles
             Convg  =    0.2886D-08             -V/T =  2.0018
 Calling FoFJK, ICntrl=      2127 FMM=F ISym2X=0 I1Cent= 0 IOpClX= 0 NMat=1 NMatS=1 NMatT=0.
 ***** Axes restored to original set *****
 -------------------------------------------------------------------
 Center     Atomic                   Forces (Hartrees/Bohr)
 Number     Number              X              Y              Z
 -------------------------------------------------------------------
      1        6           0.005501668   -0.008736351   -0.004360045
      2        6          -0.005515970    0.013487555    0.002722967
      3        6           0.008778464    0.011378047   -0.003633018
      4        6          -0.007523198   -0.006684285    0.004921219
      5        6          -0.008412358    0.000648380    0.006528677
      6        6           0.008231453   -0.002015483   -0.006469794
      7        1           0.001615593   -0.000943261   -0.004186644
      8        1           0.003630284    0.003006552    0.001118718
      9        1          -0.002743129    0.003750667   -0.001367240
     10        1          -0.001765502   -0.000191776    0.004229516
     11        6          -0.007762995    0.000743978    0.006348306
     12        1           0.003360357   -0.003823746    0.002509795
     13        1           0.000428000    0.001664605    0.002129231
     14        1           0.001377400   -0.004787797    0.000804694
     15        6           0.007636439   -0.001741590   -0.006320463
     16        1          -0.004257177   -0.002999198   -0.002260505
     17        1          -0.000006523    0.001560249   -0.002245496
     18        1          -0.002572806   -0.004316547   -0.000469919
 -------------------------------------------------------------------
 Cartesian Forces:  Max     0.013487555 RMS     0.004981122

 GradGradGradGradGradGradGradGradGradGradGradGradGradGradGradGradGradGrad
 Berny optimization.
 Using GEDIIS/GDIIS optimizer.
 Internal  Forces:  Max     0.021995764 RMS     0.005180763
 Search for a local minimum.
 Step number   3 out of a maximum of   79
 All quantities printed in internal units (Hartrees-Bohrs-Radians)
 Mixed Optimization -- RFO/linear search
 Update second derivatives using D2CorX and points    1    2    3
 ITU=  0 -1  0
 Use linear search instead of GDIIS.
     Eigenvalues ---    0.00903   0.00906   0.01029   0.01820   0.01822
     Eigenvalues ---    0.01837   0.01871   0.01933   0.01948   0.02703
     Eigenvalues ---    0.02918   0.02921   0.02924   0.02924   0.02956
     Eigenvalues ---    0.15767   0.15980   0.15988   0.15989   0.15989
     Eigenvalues ---    0.15993   0.15998   0.16000   0.16000   0.16004
     Eigenvalues ---    0.21980   0.22006   0.22006   0.22007   0.22008
     Eigenvalues ---    0.27892   0.33334   0.33485   0.34014   0.35223
     Eigenvalues ---    0.35234   0.35246   0.35271   0.35291   0.35333
     Eigenvalues ---    0.35371   0.35426   0.36175   0.36748   0.53314
     Eigenvalues ---    0.54270   0.57867   0.57913
 RFO step:  Lambda=-6.51908939D-03 EMin= 9.02551151D-03
 Quartic linear search produced a step of  0.00819.
 Iteration  1 RMS(Cart)=  0.10338704 RMS(Int)=  0.00140806
 Iteration  2 RMS(Cart)=  0.00306596 RMS(Int)=  0.00010479
 Iteration  3 RMS(Cart)=  0.00000344 RMS(Int)=  0.00010477
 Iteration  4 RMS(Cart)=  0.00000000 RMS(Int)=  0.00010477
 Variable       Old X    -DE/DX   Delta X   Delta X   Delta X     New X
                                 (Linear)    (Quad)   (Total)
    R1        2.54838  -0.02200   0.00011  -0.04220  -0.04210   2.50628
    R2        2.80761  -0.01007   0.00009  -0.03118  -0.03109   2.77652
    R3        2.04814  -0.00369   0.00006  -0.01142  -0.01136   2.03678
    R4        2.80972  -0.00934   0.00000  -0.02712  -0.02712   2.78260
    R5        2.04833  -0.00297   0.00005  -0.00932  -0.00927   2.03906
    R6        2.54837  -0.02199   0.00011  -0.04220  -0.04209   2.50628
    R7        2.04832  -0.00297   0.00005  -0.00932  -0.00927   2.03906
    R8        2.80761  -0.01007   0.00009  -0.03117  -0.03109   2.77652
    R9        2.04814  -0.00369   0.00006  -0.01142  -0.01137   2.03678
   R10        2.51587  -0.01126   0.00012  -0.02177  -0.02164   2.49423
   R11        2.04715  -0.00380   0.00006  -0.01173  -0.01167   2.03548
   R12        2.51586  -0.01125   0.00012  -0.02176  -0.02163   2.49423
   R13        2.04715  -0.00380   0.00006  -0.01173  -0.01167   2.03548
   R14        2.03215  -0.00179   0.00007  -0.00629  -0.00622   2.02592
   R15        2.04524  -0.00485   0.00006  -0.01473  -0.01466   2.03058
   R16        2.03214  -0.00179   0.00007  -0.00628  -0.00621   2.02593
   R17        2.04524  -0.00485   0.00006  -0.01473  -0.01467   2.03058
    A1        2.31223  -0.00336  -0.00047  -0.00503  -0.00554   2.30669
    A2        2.00099   0.00127   0.00024   0.00035   0.00055   2.00153
    A3        1.96846   0.00212   0.00023   0.00560   0.00579   1.97425
    A4        2.32078  -0.00274  -0.00059  -0.00008  -0.00067   2.32011
    A5        1.99319   0.00274   0.00029   0.00846   0.00875   2.00194
    A6        1.96757   0.00000   0.00031  -0.00830  -0.00799   1.95958
    A7        2.32078  -0.00274  -0.00059  -0.00008  -0.00067   2.32011
    A8        1.96757   0.00000   0.00031  -0.00830  -0.00799   1.95958
    A9        1.99319   0.00274   0.00029   0.00846   0.00875   2.00194
   A10        2.31224  -0.00336  -0.00047  -0.00503  -0.00555   2.30669
   A11        2.00099   0.00127   0.00024   0.00035   0.00054   2.00153
   A12        1.96845   0.00212   0.00023   0.00561   0.00580   1.97425
   A13        2.22447   0.00121  -0.00025   0.01072   0.01037   2.23484
   A14        2.01693  -0.00420   0.00020  -0.02780  -0.02771   1.98922
   A15        2.03945   0.00304   0.00005   0.01872   0.01869   2.05814
   A16        2.22447   0.00120  -0.00025   0.01071   0.01037   2.23484
   A17        2.01692  -0.00420   0.00020  -0.02780  -0.02770   1.98921
   A18        2.03945   0.00304   0.00005   0.01872   0.01868   2.05814
   A19        2.14716  -0.00126  -0.00001  -0.00708  -0.00731   2.13985
   A20        2.08647   0.00204  -0.00001   0.01276   0.01252   2.09899
   A21        2.04912  -0.00074   0.00002  -0.00460  -0.00480   2.04432
   A22        2.14716  -0.00126  -0.00001  -0.00708  -0.00731   2.13985
   A23        2.08646   0.00204  -0.00001   0.01276   0.01253   2.09899
   A24        2.04914  -0.00074   0.00002  -0.00461  -0.00481   2.04433
    D1        0.12047  -0.00302  -0.00029  -0.08607  -0.08634   0.03413
    D2       -2.95368  -0.00312  -0.00050  -0.08744  -0.08793  -3.04162
    D3       -3.08550  -0.00243  -0.00008  -0.06599  -0.06608   3.13160
    D4        0.12353  -0.00253  -0.00030  -0.06736  -0.06767   0.05586
    D5        0.29476   0.00020  -0.00020   0.02338   0.02334   0.31811
    D6       -2.92320   0.00108  -0.00007   0.05063   0.05041  -2.87279
    D7       -2.78337  -0.00037  -0.00041   0.00373   0.00347  -2.77990
    D8        0.28185   0.00051  -0.00028   0.03098   0.03054   0.31239
    D9        0.84484   0.00026  -0.00096   0.03946   0.03851   0.88335
   D10       -2.36345   0.00044  -0.00075   0.04130   0.04055  -2.32289
   D11       -2.36344   0.00044  -0.00075   0.04130   0.04055  -2.32289
   D12        0.71145   0.00062  -0.00053   0.04314   0.04260   0.75405
   D13        0.12046  -0.00302  -0.00029  -0.08606  -0.08633   0.03413
   D14       -3.08549  -0.00243  -0.00008  -0.06601  -0.06609   3.13160
   D15       -2.95369  -0.00312  -0.00050  -0.08742  -0.08792  -3.04161
   D16        0.12355  -0.00253  -0.00030  -0.06738  -0.06769   0.05586
   D17        0.29478   0.00019  -0.00020   0.02335   0.02332   0.31810
   D18       -2.92321   0.00108  -0.00007   0.05064   0.05042  -2.87279
   D19       -2.78337  -0.00037  -0.00041   0.00373   0.00347  -2.77990
   D20        0.28182   0.00052  -0.00028   0.03101   0.03057   0.31239
   D21       -0.00559  -0.00145   0.00011  -0.03702  -0.03676  -0.04235
   D22        3.10349  -0.00002   0.00009   0.00335   0.00359   3.10708
   D23       -3.06993  -0.00207  -0.00002  -0.06285  -0.06302  -3.13296
   D24        0.03915  -0.00064  -0.00005  -0.02248  -0.02268   0.01647
   D25       -0.00557  -0.00145   0.00011  -0.03704  -0.03677  -0.04235
   D26        3.10349  -0.00002   0.00009   0.00335   0.00359   3.10708
   D27       -3.06994  -0.00207  -0.00002  -0.06284  -0.06301  -3.13295
   D28        0.03913  -0.00064  -0.00005  -0.02245  -0.02265   0.01648
         Item               Value     Threshold  Converged?
 Maximum Force            0.021996     0.000450     NO 
 RMS     Force            0.005181     0.000300     NO 
 Maximum Displacement     0.240726     0.001800     NO 
 RMS     Displacement     0.103672     0.001200     NO 
 Predicted change in Energy=-3.540627D-03
 GradGradGradGradGradGradGradGradGradGradGradGradGradGradGradGradGradGrad

                          Input orientation:                          
 ---------------------------------------------------------------------
 Center     Atomic      Atomic             Coordinates (Angstroms)
 Number     Number       Type             X           Y           Z
 ---------------------------------------------------------------------
      1          6           0       -1.813404    4.283102    0.454454
      2          6           0       -0.944758    3.281659    0.415067
      3          6           0        0.331370    3.088160   -0.293648
      4          6           0        1.428380    3.826343   -0.396805
      5          6           0        1.807440    5.117435    0.193238
      6          6           0       -1.852425    5.582337   -0.230543
      7          1           0       -2.675455    4.106884    1.076950
      8          1           0       -1.242922    2.404108    0.967598
      9          1           0        0.388032    2.125992   -0.778737
     10          1           0        2.209961    3.389546   -0.996827
     11          6           0       -1.191336    5.952258   -1.311390
     12          1           0       -2.546247    6.284059    0.201202
     13          1           0       -0.489062    5.311271   -1.806657
     14          1           0       -1.339093    6.931726   -1.727845
     15          6           0        1.274278    5.722061    1.238358
     16          1           0        2.654580    5.583649   -0.281317
     17          1           0        0.435225    5.321118    1.771815
     18          1           0        1.673437    6.657692    1.584609
 ---------------------------------------------------------------------
                    Distance matrix (angstroms):
                    1          2          3          4          5
     1  C    0.000000
     2  C    1.326267   0.000000
     3  C    2.566632   1.472489   0.000000
     4  C    3.382667   2.566632   1.326268   0.000000
     5  C    3.724896   3.315701   2.556129   1.469270   0.000000
     6  C    1.469270   2.556128   3.315700   3.724895   3.713534
     7  H    1.077816   2.028397   3.457938   4.369453   4.679584
     8  H    2.029627   1.079023   2.130039   3.319670   4.155296
     9  H    3.319670   2.130039   1.079023   2.029628   3.450824
    10  H    4.369453   3.457938   2.028397   1.077816   2.136324
    11  C    2.508238   3.189600   3.399630   3.495553   3.457382
    12  H    2.145932   3.409532   4.328894   4.711225   4.507290
    13  H    2.814895   3.043524   2.811499   2.805224   3.051405
    14  H    3.464478   4.250947   4.429488   4.367376   4.108878
    15  C    3.495552   3.399630   3.189600   2.508237   1.319890
    16  H    4.711227   4.328896   3.409534   2.145933   1.077128
    17  H    2.805218   2.811496   3.043522   2.814893   2.101515
    18  H    4.367378   4.429489   4.250947   3.464476   2.079967
                    6          7          8          9         10
     6  C    0.000000
     7  H    2.136324   0.000000
     8  H    3.450823   2.227903   0.000000
     9  H    4.155297   4.092977   2.405629   0.000000
    10  H    4.679584   5.355596   4.092977   2.227904   0.000000
    11  C    1.319891   3.363360   4.217324   4.173540   4.270276
    12  H    1.077128   2.350260   4.164137   5.182644   5.695172
    13  H    2.101516   3.813929   4.088569   3.460046   3.410803
    14  H    2.079969   4.199104   5.270103   5.194117   5.067268
    15  C    3.457378   4.270274   4.173538   4.217324   3.363359
    16  H    4.507291   5.695173   5.182644   4.164140   2.350262
    17  H    3.051396   3.410796   3.460042   4.088566   3.813927
    18  H    4.108877   5.067268   5.194116   5.270103   4.199101
                   11         12         13         14         15
    11  C    0.000000
    12  H    2.057623   0.000000
    13  H    1.072073   3.034769   0.000000
    14  H    1.074534   2.365991   1.831567   0.000000
[...]
 ! D14   D(2,3,4,10)          -178.8388         -DE/DX =    0.0                 !
 ! D15   D(9,3,4,5)           -177.521          -DE/DX =    0.0                 !
 ! D16   D(9,3,4,10)             3.5922         -DE/DX =    0.0                 !
 ! D17   D(3,4,5,15)            50.6425         -DE/DX =    0.0                 !
 ! D18   D(3,4,5,16)          -132.4952         -DE/DX =    0.0                 !
 ! D19   D(10,4,5,15)         -130.4486         -DE/DX =    0.0                 !
 ! D20   D(10,4,5,16)           46.4137         -DE/DX =    0.0                 !
 ! D21   D(4,5,15,17)           -1.4537         -DE/DX =    0.0                 !
 ! D22   D(4,5,15,18)          178.5153         -DE/DX =    0.0                 !
 ! D23   D(16,5,15,17)        -178.2099         -DE/DX =    0.0                 !
 ! D24   D(16,5,15,18)           1.7591         -DE/DX =    0.0                 !
 ! D25   D(1,6,11,13)           -1.4537         -DE/DX =    0.0                 !
 ! D26   D(1,6,11,14)          178.5153         -DE/DX =    0.0                 !
 ! D27   D(12,6,11,13)        -178.2099         -DE/DX =    0.0                 !
 ! D28   D(12,6,11,14)           1.7591         -DE/DX =    0.0                 !
 --------------------------------------------------------------------------------
 GradGradGradGradGradGradGradGradGradGradGradGradGradGradGradGradGradGrad

                          Input orientation:                          
 ---------------------------------------------------------------------
 Center     Atomic      Atomic             Coordinates (Angstroms)
 Number     Number       Type             X           Y           Z
 ---------------------------------------------------------------------
      1          6           0       -1.772733    4.433598    0.400858
      2          6           0       -0.910908    3.428275    0.444684
      3          6           0        0.336177    3.236021   -0.334058
      4          6           0        1.428382    3.985690   -0.354567
      5          6           0        1.707471    5.227355    0.398163
      6          6           0       -1.729445    5.647731   -0.441896
      7          1           0       -2.615545    4.384703    1.073849
      8          1           0       -1.149809    2.609282    1.107325
      9          1           0        0.349632    2.337627   -0.933744
     10          1           0        2.223714    3.672897   -1.014300
     11          6           0       -1.555583    5.676516   -1.749766
     12          1           0       -1.907028    6.575542    0.080961
     13          1           0       -1.403705    4.779076   -2.322534
     14          1           0       -1.560436    6.606023   -2.291507
     15          6           0        1.559271    5.394043    1.698867
     16          1           0        2.113253    6.037918   -0.188420
     17          1           0        1.186625    4.609711    2.333285
     18          1           0        1.808664    6.327390    2.172320
 ---------------------------------------------------------------------
                    Distance matrix (angstroms):
                    1          2          3          4          5
     1  C    0.000000
     2  C    1.324891   0.000000
     3  C    2.534126   1.482775   0.000000
     4  C    3.319402   2.534126   1.324891   0.000000
     5  C    3.569577   3.177226   2.526264   1.478589   0.000000
     6  C    1.478589   2.526264   3.177226   3.569577   3.562978
     7  H    1.079648   2.053384   3.466170   4.307311   4.455904
     8  H    2.053110   1.080239   2.162993   3.267827   3.939704
     9  H    3.267827   2.162993   1.080239   2.053110   3.459514
    10  H    4.307311   3.466170   2.053384   1.079648   2.162845
    11  C    2.493428   3.207149   3.396911   3.702638   3.932286
    12  H    2.169860   3.321120   4.044331   4.245231   3.870766
    13  H    2.769909   3.118494   3.059778   3.538796   4.157230
    14  H    3.466025   4.243431   4.334243   4.421642   4.451322
    15  C    3.702639   3.396911   3.207149   2.493428   1.319689
    16  H    4.245230   4.044330   3.321120   2.169860   1.079699
    17  H    3.538798   3.059780   3.118495   2.769909   2.097013
    18  H    4.421643   4.334243   4.243432   3.466025   2.089964
                    6          7          8          9         10
     6  C    0.000000
     7  H    2.162845   0.000000
     8  H    3.459514   2.302525   0.000000
     9  H    3.939704   4.124709   2.547171   0.000000
    10  H    4.455904   5.318408   4.124709   2.302525   0.000000
    11  C    1.319689   3.281021   4.211359   3.929876   4.340333
    12  H    1.079699   2.507509   4.166296   4.907349   5.166041
    13  H    2.097013   3.627603   4.066497   3.311134   4.011643
    14  H    2.089964   4.168110   5.262567   4.869403   4.955227
    15  C    3.932287   4.340334   3.929876   4.211359   3.281021
    16  H    3.870765   5.166040   4.907349   4.166296   2.507509
    17  H    4.157233   4.011646   3.311135   4.066498   3.627602
    18  H    4.451323   4.955229   4.869404   5.262567   4.168110
                   11         12         13         14         15
    11  C    0.000000
    12  H    2.069619   0.000000
    13  H    1.075420   3.042600   0.000000
    14  H    1.075867   2.397845   1.833920   0.000000
    15  C    4.655661   4.003597   5.032800   5.208124   0.000000
    16  H    4.003595   4.065005   4.302106   4.271031   2.069619
    17  H    5.032801   4.302110   5.330586   5.737622   1.075420
    18  H    5.208124   4.271034   5.737622   5.599484   1.075867
                   16         17         18
    16  H    0.000000
    17  H    3.042600   0.000000
    18  H    2.397845   1.833920   0.000000
 Stoichiometry    C8H10
 Framework group  C1[X(C8H10)]
 Deg. of freedom    48
 Full point group                 C1      NOp   1
 Largest Abelian subgroup         C1      NOp   1
 Largest concise Abelian subgroup C1      NOp   1
                         Standard orientation:                         
 ---------------------------------------------------------------------
 Center     Atomic      Atomic             Coordinates (Angstroms)
 Number     Number       Type             X           Y           Z
 ---------------------------------------------------------------------
      1          6           0       -1.316307    0.451658   -1.010912
      2          6           0       -0.413880    1.337267   -0.615108
      3          6           0        0.413880    1.337267    0.615109
      4          6           0        1.316306    0.451658    1.010913
      5          6           0        1.750432   -0.787593    0.331194
      6          6           0       -1.750432   -0.787593   -0.331195
      7          1           0       -1.796712    0.634175   -1.960406
      8          1           0       -0.272041    2.203900   -1.244191
      9          1           0        0.272040    2.203899    1.244193
     10          1           0        1.796711    0.634173    1.960407
     11          6           0       -2.135155   -0.886234    0.927312
     12          1           0       -1.791876   -1.664816   -0.959298
     13          1           0       -2.140702   -0.037574    1.587822
     14          1           0       -2.459257   -1.826273    1.338135
     15          6           0        2.135156   -0.886233   -0.927312
     16          1           0        1.791875   -1.664817    0.959296
     17          1           0        2.140704   -0.037572   -1.587821
     18          1           0        2.459259   -1.826271   -1.338136
 ---------------------------------------------------------------------
 Rotational constants (GHZ):      2.7659967      1.4799217      1.3745320

 **********************************************************************

            Population analysis using the SCF density.

 **********************************************************************

 Orbital symmetries:
       Occupied  (A) (A) (A) (A) (A) (A) (A) (A) (A) (A) (A) (A)
                 (A) (A) (A) (A) (A) (A) (A) (A) (A) (A) (A) (A)
                 (A) (A) (A) (A) (A)
       Virtual   (A) (A) (A) (A) (A) (A) (A) (A) (A) (A) (A) (A)
                 (A) (A) (A) (A) (A) (A) (A) (A) (A) (A) (A) (A)
                 (A) (A) (A) (A) (A) (A) (A) (A) (A) (A) (A) (A)
                 (A) (A) (A) (A) (A) (A) (A) (A) (A) (A) (A) (A)
                 (A) (A) (A) (A) (A) (A) (A) (A) (A) (A) (A) (A)
                 (A) (A) (A) (A) (A) (A) (A) (A) (A) (A) (A) (A)
                 (A) (A) (A) (A) (A) (A) (A) (A) (A) (A) (A) (A)
                 (A) (A) (A) (A) (A) (A) (A) (A) (A) (A) (A) (A)
                 (A) (A) (A) (A) (A) (A) (A) (A) (A) (A) (A) (A)
                 (A) (A) (A) (A) (A) (A) (A) (A) (A) (A) (A) (A)
                 (A) (A) (A) (A) (A) (A) (A) (A) (A) (A) (A) (A)
                 (A) (A) (A) (A) (A) (A) (A) (A) (A)
 The electronic state is 1-A.
 Alpha  occ. eigenvalues --  -11.23088 -11.23035 -11.22874 -11.22858 -11.22785
 Alpha  occ. eigenvalues --  -11.22784 -11.21644 -11.21644  -1.10687  -1.06850
 Alpha  occ. eigenvalues --   -1.01812  -0.97274  -0.85939  -0.80377  -0.74217
 Alpha  occ. eigenvalues --   -0.68544  -0.66514  -0.64014  -0.61447  -0.59584
 Alpha  occ. eigenvalues --   -0.58073  -0.55597  -0.51801  -0.48889  -0.47096
 Alpha  occ. eigenvalues --   -0.40677  -0.40448  -0.34752  -0.30504
 Alpha virt. eigenvalues --    0.13055   0.16226   0.22400   0.22794   0.26984
 Alpha virt. eigenvalues --    0.28625   0.28853   0.29605   0.30774   0.31698
 Alpha virt. eigenvalues --    0.34161   0.34468   0.35200   0.36639   0.44518
 Alpha virt. eigenvalues --    0.49658   0.52094   0.52619   0.58244   0.59701
 Alpha virt. eigenvalues --    0.65549   0.65629   0.70756   0.71940   0.76535
 Alpha virt. eigenvalues --    0.76850   0.78127   0.78480   0.80307   0.84574
 Alpha virt. eigenvalues --    0.85234   0.88378   0.90692   0.93308   0.93846
 Alpha virt. eigenvalues --    0.95065   0.96013   0.97089   0.98380   1.01022
 Alpha virt. eigenvalues --    1.08097   1.09267   1.10655   1.10892   1.11180
 Alpha virt. eigenvalues --    1.11409   1.13735   1.14399   1.14814   1.15728
 Alpha virt. eigenvalues --    1.20547   1.20904   1.23614   1.26765   1.27414
 Alpha virt. eigenvalues --    1.33765   1.37873   1.38506   1.40433   1.45145
 Alpha virt. eigenvalues --    1.47251   1.58559   1.59012   1.66790   1.67136
 Alpha virt. eigenvalues --    1.70552   1.71365   1.76208   1.76609   1.88108
 Alpha virt. eigenvalues --    1.88522   1.94566   1.97773   2.09533   2.13988
 Alpha virt. eigenvalues --    2.16535   2.18789   2.21579   2.23455   2.23961
 Alpha virt. eigenvalues --    2.23984   2.24255   2.27687   2.29612   2.33829
 Alpha virt. eigenvalues --    2.34834   2.39462   2.40317   2.46619   2.49463
 Alpha virt. eigenvalues --    2.51416   2.55568   2.60045   2.66490   2.69962
 Alpha virt. eigenvalues --    2.70787   2.72360   2.72583   2.73650   2.74551
 Alpha virt. eigenvalues --    2.77351   2.79701   2.80461   2.82273   2.84698
 Alpha virt. eigenvalues --    2.88407   2.89421   2.95253   2.97769   2.99814
 Alpha virt. eigenvalues --    2.99859   3.00438   3.02310   3.05860   3.12458
 Alpha virt. eigenvalues --    3.14415   3.17633   3.24296   3.33251   3.36112
 Alpha virt. eigenvalues --    3.42037   3.51055   3.61829   3.65418   3.66833
 Alpha virt. eigenvalues --    3.68483   3.68859   3.84434   3.85446   3.90319
 Alpha virt. eigenvalues --    3.97446   4.11671   4.15796   4.53066   4.66213
 Alpha virt. eigenvalues --    4.67248   4.69921   4.84386   4.91537   5.00213
 Alpha virt. eigenvalues --    5.12877
          Condensed to atoms (all electrons):
              1          2          3          4          5          6
     1  C    4.860137   0.674852  -0.053580  -0.001364  -0.000602   0.378743
     2  C    0.674852   4.882390   0.374269  -0.053580  -0.004543  -0.055396
     3  C   -0.053580   0.374269   4.882390   0.674852  -0.055396  -0.004543
     4  C   -0.001364  -0.053580   0.674852   4.860137   0.378743  -0.000602
     5  C   -0.000602  -0.004543  -0.055396   0.378743   4.849362   0.001245
     6  C    0.378743  -0.055396  -0.004543  -0.000602   0.001245   4.849362
     7  H    0.402067  -0.038141   0.003517  -0.000057  -0.000021  -0.041451
     8  H   -0.037583   0.401252  -0.041005   0.001148   0.000307   0.003412
     9  H    0.001148  -0.041005   0.401252  -0.037583   0.003412   0.000307
    10  H   -0.000057   0.003517  -0.038141   0.402067  -0.041451  -0.000021
    11  C   -0.052214  -0.003457   0.000469  -0.001643   0.000195   0.658594
    12  H   -0.039340   0.002084   0.000094  -0.000117   0.000153   0.403839
    13  H   -0.003720   0.001643   0.001105   0.000264  -0.000026  -0.042067
    14  H    0.003283   0.000015  -0.000006   0.000009   0.000005  -0.040040
    15  C   -0.001643   0.000469  -0.003457  -0.052214   0.658594   0.000195
    16  H   -0.000117   0.000094   0.002084  -0.039340   0.403839   0.000153
    17  H    0.000264   0.001105   0.001643  -0.003720  -0.042067  -0.000026
    18  H    0.000009  -0.000006   0.000015   0.003283  -0.040040   0.000005
              7          8          9         10         11         12
     1  C    0.402067  -0.037583   0.001148  -0.000057  -0.052214  -0.039340
     2  C   -0.038141   0.401252  -0.041005   0.003517  -0.003457   0.002084
     3  C    0.003517  -0.041005   0.401252  -0.038141   0.000469   0.000094
     4  C   -0.000057   0.001148  -0.037583   0.402067  -0.001643  -0.000117
     5  C   -0.000021   0.000307   0.003412  -0.041451   0.000195   0.000153
     6  C   -0.041451   0.003412   0.000307  -0.000021   0.658594   0.403839
     7  H    0.545417  -0.005575  -0.000138   0.000002   0.001895  -0.000509
     8  H   -0.005575   0.543337   0.000330  -0.000138  -0.000060  -0.000130
     9  H   -0.000138   0.000330   0.543337  -0.005575  -0.000282  -0.000004
    10  H    0.000002  -0.000138  -0.005575   0.545417  -0.000048  -0.000001
    11  C    0.001895  -0.000060  -0.000282  -0.000048   4.887581  -0.037836
    12  H   -0.000509  -0.000130  -0.000004  -0.000001  -0.037836   0.538890
    13  H    0.000132  -0.000039  -0.000022  -0.000006   0.410036   0.003565
    14  H   -0.000121   0.000003  -0.000004  -0.000003   0.405228  -0.004524
    15  C   -0.000048  -0.000282  -0.000060   0.001895  -0.000069   0.000154
    16  H   -0.000001  -0.000004  -0.000130  -0.000509   0.000154   0.000023
    17  H   -0.000006  -0.000022  -0.000039   0.000132  -0.000003  -0.000005
    18  H   -0.000003  -0.000004   0.000003  -0.000121  -0.000002   0.000005
             13         14         15         16         17         18
     1  C   -0.003720   0.003283  -0.001643  -0.000117   0.000264   0.000009
     2  C    0.001643   0.000015   0.000469   0.000094   0.001105  -0.000006
     3  C    0.001105  -0.000006  -0.003457   0.002084   0.001643   0.000015
     4  C    0.000264   0.000009  -0.052214  -0.039340  -0.003720   0.003283
     5  C   -0.000026   0.000005   0.658594   0.403839  -0.042067  -0.040040
     6  C   -0.042067  -0.040040   0.000195   0.000153  -0.000026   0.000005
     7  H    0.000132  -0.000121  -0.000048  -0.000001  -0.000006  -0.000003
     8  H   -0.000039   0.000003  -0.000282  -0.000004  -0.000022  -0.000004
     9  H   -0.000022  -0.000004  -0.000060  -0.000130  -0.000039   0.000003
    10  H   -0.000006  -0.000003   0.001895  -0.000509   0.000132  -0.000121
    11  C    0.410036   0.405228  -0.000069   0.000154  -0.000003  -0.000002
    12  H    0.003565  -0.004524   0.000154   0.000023  -0.000005   0.000005
    13  H    0.529151  -0.030253  -0.000003  -0.000005   0.000000   0.000000
    14  H   -0.030253   0.542312  -0.000002   0.000005   0.000000   0.000000
    15  C   -0.000003  -0.000002   4.887581  -0.037836   0.410036   0.405228
    16  H   -0.000005   0.000005  -0.037836   0.538890   0.003565  -0.004524
    17  H    0.000000   0.000000   0.410036   0.003565   0.529151  -0.030253
    18  H    0.000000   0.000000   0.405228  -0.004524  -0.030253   0.542312
 Mulliken atomic charges:
              1
     1  C   -0.130284
     2  C   -0.145561
     3  C   -0.145561
     4  C   -0.130284
     5  C   -0.111710
     6  C   -0.111710
     7  H    0.133039
     8  H    0.135052
     9  H    0.135052
    10  H    0.133039
    11  C   -0.268536
    12  H    0.133661
    13  H    0.130246
    14  H    0.124093
    15  C   -0.268536
    16  H    0.133661
    17  H    0.130246
    18  H    0.124093
 Sum of Mulliken atomic charges =   0.00000
 Mulliken charges with hydrogens summed into heavy atoms:
              1
     1  C    0.002755
     2  C   -0.010509
     3  C   -0.010509
     4  C    0.002755
     5  C    0.021951
     6  C    0.021951
    11  C   -0.014198
    15  C   -0.014198
 Sum of Mulliken charges with hydrogens summed into heavy atoms =   0.00000
 Electronic spatial extent (au):  <R**2>=           1041.1966
 Charge=              0.0000 electrons
 Dipole moment (field-independent basis, Debye):
    X=              0.0000    Y=             -0.0621    Z=              0.0000  Tot=              0.0621
 Quadrupole moment (field-independent basis, Debye-Ang):
   XX=            -51.8059   YY=            -45.7490   ZZ=            -45.3831
   XY=              0.0000   XZ=              0.6092   YZ=              0.0000
 Traceless Quadrupole moment (field-independent basis, Debye-Ang):
   XX=             -4.1599   YY=              1.8970   ZZ=              2.2629
   XY=              0.0000   XZ=              0.6092   YZ=              0.0000
 Octapole moment (field-independent basis, Debye-Ang**2):
  XXX=              0.0000  YYY=             -1.9516  ZZZ=              0.0000  XYY=              0.0000
  XXY=             -5.5473  XXZ=              0.0000  XZZ=              0.0000  YZZ=              0.9666
  YYZ=              0.0000  XYZ=              1.2733
 Hexadecapole moment (field-independent basis, Debye-Ang**3):
 XXXX=           -870.3132 YYYY=           -339.4531 ZZZZ=           -281.0117 XXXY=              0.0000
 XXXZ=             -3.4923 YYYX=              0.0000 YYYZ=              0.0000 ZZZX=              5.2396
 ZZZY=              0.0000 XXYY=           -187.1165 XXZZ=           -161.1470 YYZZ=            -97.2006
 XXYZ=              0.0000 YYXZ=             -3.5179 ZZXY=              0.0000
 N-N= 3.273507488761D+02 E-N=-1.373199931837D+03  KE= 3.084370851882D+02
 1\1\GINC-M8-19-10\FOpt\RHF\6-31G(d,p)\C8H10\JELOWITT\01-Jun-2021\0\\#n
  RHF/6-31G(d,p) Opt\\Title\\0,1\C,-1.7727328386,4.4335983775,0.4008578
 03\C,-0.9109082882,3.4282752082,0.4446837333\C,0.3361768777,3.23602102
 86,-0.33405833\C,1.4283823669,3.9856899736,-0.354566803\C,1.7074714001
 ,5.2273554435,0.3981629643\C,-1.7294449779,5.6477307029,-0.4418964396\
 H,-2.6155445495,4.3847026694,1.0738490735\H,-1.1498085153,2.6092822641
 ,1.1073249076\H,0.3496324606,2.3376267744,-0.9337439138\H,2.2237144486
 ,3.6728974772,-1.0142995945\C,-1.5555833585,5.6765162424,-1.7497659731
 \H,-1.9070279885,6.575542402,0.0809613995\H,-1.4037051814,4.7790762626
 ,-2.3225336541\H,-1.5604357529,6.6060231584,-2.291507211\C,1.559271331
 6,5.3940431478,1.6988670507\H,2.1132530486,6.0379182289,-0.1884202089\
 H,1.1866253562,4.6097109794,2.3332851613\H,1.8086641606,6.3273896593,2
 .1723200348\\Version=EM64L-G09RevB.01\State=1-A\HF=-308.6887719\RMSD=4
 .019e-09\RMSF=2.015e-06\Dipole=0.0031765,0.0241969,-0.0008871\Quadrupo
 le=-1.9028331,1.3720715,0.5307616,0.3587484,-2.0780962,0.240551\PG=C01
  [X(C8H10)]\\@


 ... A MOLECULAR SYSTEM ... (PASSES) ... FROM ONE STATE OF EQUILIBRIUM 
 TO ANOTHER ... BY MEANS OF ALL POSSIBLE INTERMEDIATE PATHS, 
 BUT THE PATH MOST ECONOMICAL OF ENERGY WILL BE THE MORE OFTEN TRAVELED.

                      -- HENRY EYRING, 1945
 Job cpu time:  0 days  0 hours 58 minutes  8.8 seconds.
 File lengths (MBytes):  RWF=     24 Int=      0 D2E=      0 Chk=      3 Scr=      1
 Normal termination of Gaussian 09 at Tue Jun  1 01:45:05 2021.
