 Entering Gaussian System, Link 0=/fslapps/gaussian09/B.01/EM64T/g09/g09
 Initial command:
 /apps/gaussian09/B.01/EM64T/g09/l1.exe /tmp/Gau-17629.inp -scrdir=/tmp/
 Entering Link 1 = /apps/gaussian09/B.01/EM64T/g09/l1.exe PID=     17630.
  
 Copyright (c) 1988,1990,1992,1993,1995,1998,2003,2009,2010,
            Gaussian, Inc.  All Rights Reserved.
  
 This is part of the Gaussian(R) 09 program.  It is based on
 the Gaussian(R) 03 system (copyright 2003, Gaussian, Inc.),
 the Gaussian(R) 98 system (copyright 1998, Gaussian, Inc.),
 the Gaussian(R) 94 system (copyright 1995, Gaussian, Inc.),
 the Gaussian 92(TM) system (copyright 1992, Gaussian, Inc.),
 the Gaussian 90(TM) system (copyright 1990, Gaussian, Inc.),
 the Gaussian 88(TM) system (copyright 1988, Gaussian, Inc.),
 the Gaussian 86(TM) system (copyright 1986, Carnegie Mellon
 University), and the Gaussian 82(TM) system (copyright 1983,
 Carnegie Mellon University). Gaussian is a federally registered
 trademark of Gaussian, Inc.
  
 This software contains proprietary and confidential information,
 including trade secrets, belonging to Gaussian, Inc.
  
 This software is provided under written license and may be
 used, copied, transmitted, or stored only in accord with that
 written license.
  
 The following legend is applicable only to US Government
 contracts under FAR:
  
                    RESTRICTED RIGHTS LEGEND
  
 Use, reproduction and disclosure by the US Government is
 subject to restrictions as set forth in subparagraphs (a)
 and (c) of the Commercial Computer Software - Restricted
 Rights clause in FAR 52.227-19.
  
 Gaussian, Inc.
 340 Quinnipiac St., Bldg. 40, Wallingford CT 06492
  
  
 ---------------------------------------------------------------
 Warning -- This program may not be used in any manner that
 competes with the business of Gaussian, Inc. or will provide
 assistance to any competitor of Gaussian, Inc.  The licensee
 of this program is prohibited from giving any competitor of
 Gaussian, Inc. access to this program.  By using this program,
 the user acknowledges that Gaussian, Inc. is engaged in the
 business of creating and licensing software in the field of
 computational chemistry and represents and warrants to the
 licensee that it is not a competitor of Gaussian, Inc. and that
 it will not use this program in any manner prohibited above.
 ---------------------------------------------------------------
  

 Cite this work as:
 Gaussian 09, Revision B.01,
 M. J. Frisch, G. W. Trucks, H. B. Schlegel, G. E. Scuseria, 
 M. A. Robb, J. R. Cheeseman, G. Scalmani, V. Barone, B. Mennucci, 
 G. A. Petersson, H. Nakatsuji, M. Caricato, X. Li, H. P. Hratchian, 
 A. F. Izmaylov, J. Bloino, G. Zheng, J. L. Sonnenberg, M. Hada, 
 M. Ehara, K. Toyota, R. Fukuda, J. Hasegawa, M. Ishida, T. Nakajima, 
 Y. Honda, O. Kitao, H. Nakai, T. Vreven, J. A. Montgomery, Jr., 
 J. E. Peralta, F. Ogliaro, M. Bearpark, J. J. Heyd, E. Brothers, 
 K. N. Kudin, V. N. Staroverov, T. Keith, R. Kobayashi, J. Normand, 
 K. Raghavachari, A. Rendell, J. C. Burant, S. S. Iyengar, J. Tomasi, 
 M. Cossi, N. Rega, J. M. Millam, M. Klene, J. E. Knox, J. B. Cross, 
 V. Bakken, C. Adamo, J. Jaramillo, R. Gomperts, R. E. Stratmann, 
 O. Yazyev, A. J. Austin, R. Cammi, C. Pomelli, J. W. Ochterski, 
 R. L. Martin, K. Morokuma, V. G. Zakrzewski, G. A. Voth, 
 P. Salvador, J. J. Dannenberg, S. Dapprich, A. D. Daniels, 
 O. Farkas, J. B. Foresman, J. V. Ortiz, J. Cioslowski, 
 and D. J. Fox, Gaussian, Inc., Wallingford CT, 2010.
 
 ******************************************
 Gaussian 09:  EM64L-G09RevB.01 12-Aug-2010
                26-May-2021 
 ******************************************
 %NProcShared=8
 Will use up to    8 processors via shared memory.
 %NProcLinda=1
 Will use up to    1 processors via Linda.
 %mem=20gb
 %Chk=terpineol4_large_geom_opt.chk
 --------------------------------
 #n B3LYP/6-311G(2df,2p) Opt Freq
 --------------------------------
 1/14=-1,18=20,19=15,26=3,38=1/1,3;
 2/9=110,12=2,17=6,18=5,40=1/2;
 3/5=4,6=6,7=204,11=2,16=1,25=1,30=1,71=1,74=-5/1,2,3;
 4//1;
 5/5=2,38=5/2;
 6/7=2,8=2,9=2,10=2,28=1/1;
 7//1,2,3,16;
 1/14=-1,18=20,19=15/3(2);
 2/9=110/2;
 99//99;
 2/9=110/2;
 3/5=4,6=6,7=204,11=2,16=1,25=1,30=1,71=1,74=-5/1,2,3;
 4/5=5,16=3/1;
 5/5=2,38=5/2;
 7//1,2,3,16;
 1/14=-1,18=20,19=15/3(-5);
 2/9=110/2;
 6/7=2,8=2,9=2,10=2,19=2,28=1/1;
 99/9=1/99;
 -------------------------
 terpineol4_large_geom_opt
 -------------------------
 Symbolic Z-matrix:
 Charge =  0 Multiplicity = 1
 C                    -0.43462   3.25955   1.86176 
 C                     0.98783   3.74082   1.68084 
 C                     1.8745    3.02183   1.01209 
 C                     1.58486   1.68863   0.36493 
 C                    -0.76932   2.06535   0.96536 
 H                    -1.12137   4.07486   1.64419 
 H                    -0.59714   3.01507   2.91076 
 C                     0.3399    1.00182   0.93956 
 H                    -0.89409   2.40897  -0.05708 
 H                    -1.72023   1.63097   1.25932 
 H                     2.45107   1.0437    0.43858 
 H                     1.41233   1.82613  -0.6994 
 H                     2.87787   3.39939   0.89636 
 C                     1.3255    5.06519   2.31505 
 H                     0.71689   5.86335   1.89627 
 H                     2.36797   5.32434   2.17099 
 H                     1.12746   5.04542   3.38461 
 C                     0.6012    0.36081   2.33284 
 C                    -0.66509  -0.24722   2.95734 
 H                    -1.4539    0.48089   3.10615 
 H                    -0.43255  -0.66912   3.92949 
 H                    -1.06349  -1.05755   2.35119 
 C                     1.69706  -0.71394   2.29261 
 H                     0.94063   1.15226   2.99372 
 H                     1.46285  -1.48221   1.56478 
 H                     1.78853  -1.18743   3.2655 
 H                     2.66931  -0.30487   2.047 
 O                     0.        0.        0. 
 H                    -0.84028  -0.37521   0.22406 
 

 GradGradGradGradGradGradGradGradGradGradGradGradGradGradGradGradGradGrad
 Berny optimization.
 Initialization pass.
                           ----------------------------
                           !    Initial Parameters    !
                           ! (Angstroms and Degrees)  !
 --------------------------                            --------------------------
 ! Name  Definition              Value          Derivative Info.                !
 --------------------------------------------------------------------------------
 ! R1    R(1,2)                  1.5125         estimate D2E/DX2                !
 ! R2    R(1,5)                  1.5303         estimate D2E/DX2                !
 ! R3    R(1,6)                  1.088          estimate D2E/DX2                !
 ! R4    R(1,7)                  1.0893         estimate D2E/DX2                !
 ! R5    R(2,3)                  1.323          estimate D2E/DX2                !
 ! R6    R(2,14)                 1.5067         estimate D2E/DX2                !
 ! R7    R(3,4)                  1.51           estimate D2E/DX2                !
 ! R8    R(3,13)                 1.0783         estimate D2E/DX2                !
 ! R9    R(4,8)                  1.5336         estimate D2E/DX2                !
 ! R10   R(4,11)                 1.0824         estimate D2E/DX2                !
 ! R11   R(4,12)                 1.087          estimate D2E/DX2                !
 ! R12   R(5,8)                  1.5369         estimate D2E/DX2                !
 ! R13   R(5,9)                  1.0858         estimate D2E/DX2                !
 ! R14   R(5,10)                 1.086          estimate D2E/DX2                !
 ! R15   R(8,18)                 1.5558         estimate D2E/DX2                !
 ! R16   R(8,28)                 1.4149         estimate D2E/DX2                !
 ! R17   R(14,15)                1.0876         estimate D2E/DX2                !
 ! R18   R(14,16)                1.0838         estimate D2E/DX2                !
 ! R19   R(14,17)                1.0879         estimate D2E/DX2                !
 ! R20   R(18,19)                1.5373         estimate D2E/DX2                !
 ! R21   R(18,23)                1.5354         estimate D2E/DX2                !
 ! R22   R(18,24)                1.0855         estimate D2E/DX2                !
 ! R23   R(19,20)                1.0837         estimate D2E/DX2                !
 ! R24   R(19,21)                1.085          estimate D2E/DX2                !
 ! R25   R(19,22)                1.0876         estimate D2E/DX2                !
 ! R26   R(23,25)                1.0839         estimate D2E/DX2                !
 ! R27   R(23,26)                1.0859         estimate D2E/DX2                !
 ! R28   R(23,27)                1.083          estimate D2E/DX2                !
 ! R29   R(28,29)                0.9471         estimate D2E/DX2                !
 ! A1    A(2,1,5)              112.5779         estimate D2E/DX2                !
 ! A2    A(2,1,6)              109.3453         estimate D2E/DX2                !
 ! A3    A(2,1,7)              109.0821         estimate D2E/DX2                !
 ! A4    A(5,1,6)              109.2445         estimate D2E/DX2                !
 ! A5    A(5,1,7)              110.875          estimate D2E/DX2                !
 ! A6    A(6,1,7)              105.462          estimate D2E/DX2                !
 ! A7    A(1,2,3)              121.1863         estimate D2E/DX2                !
 ! A8    A(1,2,14)             116.1101         estimate D2E/DX2                !
 ! A9    A(3,2,14)             122.7007         estimate D2E/DX2                !
 ! A10   A(2,3,4)              124.6044         estimate D2E/DX2                !
 ! A11   A(2,3,13)             119.1823         estimate D2E/DX2                !
 ! A12   A(4,3,13)             116.2082         estimate D2E/DX2                !
 ! A13   A(3,4,8)              112.9876         estimate D2E/DX2                !
 ! A14   A(3,4,11)             110.0834         estimate D2E/DX2                !
 ! A15   A(3,4,12)             109.7801         estimate D2E/DX2                !
 ! A16   A(8,4,11)             110.9356         estimate D2E/DX2                !
 ! A17   A(8,4,12)             107.1396         estimate D2E/DX2                !
 ! A18   A(11,4,12)            105.6056         estimate D2E/DX2                !
 ! A19   A(1,5,8)              113.0788         estimate D2E/DX2                !
 ! A20   A(1,5,9)              109.2544         estimate D2E/DX2                !
 ! A21   A(1,5,10)             110.1881         estimate D2E/DX2                !
 ! A22   A(8,5,9)              106.6251         estimate D2E/DX2                !
 ! A23   A(8,5,10)             111.0823         estimate D2E/DX2                !
 ! A24   A(9,5,10)             106.3115         estimate D2E/DX2                !
 ! A25   A(4,8,5)              106.3964         estimate D2E/DX2                !
 ! A26   A(4,8,18)             112.5658         estimate D2E/DX2                !
 ! A27   A(4,8,28)             105.266          estimate D2E/DX2                !
 ! A28   A(5,8,18)             113.0355         estimate D2E/DX2                !
 ! A29   A(5,8,28)             109.1309         estimate D2E/DX2                !
 ! A30   A(18,8,28)            110.0783         estimate D2E/DX2                !
 ! A31   A(2,14,15)            110.9514         estimate D2E/DX2                !
 ! A32   A(2,14,16)            111.7027         estimate D2E/DX2                !
 ! A33   A(2,14,17)            110.9193         estimate D2E/DX2                !
 ! A34   A(15,14,16)           108.1549         estimate D2E/DX2                !
 ! A35   A(15,14,17)           106.8592         estimate D2E/DX2                !
 ! A36   A(16,14,17)           108.0659         estimate D2E/DX2                !
 ! A37   A(8,18,19)            112.8564         estimate D2E/DX2                !
 ! A38   A(8,18,23)            112.6318         estimate D2E/DX2                !
 ! A39   A(8,18,24)            107.2975         estimate D2E/DX2                !
 ! A40   A(19,18,23)           108.7655         estimate D2E/DX2                !
 ! A41   A(19,18,24)           107.3749         estimate D2E/DX2                !
 ! A42   A(23,18,24)           107.6453         estimate D2E/DX2                !
 ! A43   A(18,19,20)           112.9304         estimate D2E/DX2                !
 ! A44   A(18,19,21)           109.953          estimate D2E/DX2                !
 ! A45   A(18,19,22)           111.7183         estimate D2E/DX2                !
 ! A46   A(20,19,21)           107.1104         estimate D2E/DX2                !
 ! A47   A(20,19,22)           108.0885         estimate D2E/DX2                !
 ! A48   A(21,19,22)           106.7485         estimate D2E/DX2                !
 ! A49   A(18,23,25)           111.07           estimate D2E/DX2                !
 ! A50   A(18,23,26)           109.9909         estimate D2E/DX2                !
 ! A51   A(18,23,27)           112.4744         estimate D2E/DX2                !
 ! A52   A(25,23,26)           108.1049         estimate D2E/DX2                !
 ! A53   A(25,23,27)           108.0242         estimate D2E/DX2                !
 ! A54   A(26,23,27)           106.9938         estimate D2E/DX2                !
 ! A55   A(8,28,29)            109.6662         estimate D2E/DX2                !
 ! D1    D(5,1,2,3)            -12.0787         estimate D2E/DX2                !
 ! D2    D(5,1,2,14)           168.5279         estimate D2E/DX2                !
 ! D3    D(6,1,2,3)           -133.6999         estimate D2E/DX2                !
 ! D4    D(6,1,2,14)            46.9067         estimate D2E/DX2                !
 ! D5    D(7,1,2,3)            111.4383         estimate D2E/DX2                !
 ! D6    D(7,1,2,14)           -67.9551         estimate D2E/DX2                !
 ! D7    D(2,1,5,8)             43.9985         estimate D2E/DX2                !
 ! D8    D(2,1,5,9)            -74.5734         estimate D2E/DX2                !
 ! D9    D(2,1,5,10)           168.977          estimate D2E/DX2                !
 ! D10   D(6,1,5,8)            165.6769         estimate D2E/DX2                !
 ! D11   D(6,1,5,9)             47.105          estimate D2E/DX2                !
 ! D12   D(6,1,5,10)           -69.3446         estimate D2E/DX2                !
 ! D13   D(7,1,5,8)            -78.5154         estimate D2E/DX2                !
 ! D14   D(7,1,5,9)            162.9128         estimate D2E/DX2                !
 ! D15   D(7,1,5,10)            46.4632         estimate D2E/DX2                !
 ! D16   D(1,2,3,4)              0.3929         estimate D2E/DX2                !
 ! D17   D(1,2,3,13)           179.5417         estimate D2E/DX2                !
 ! D18   D(14,2,3,4)           179.7456         estimate D2E/DX2                !
 ! D19   D(14,2,3,13)           -1.1056         estimate D2E/DX2                !
 ! D20   D(1,2,14,15)          -61.1941         estimate D2E/DX2                !
 ! D21   D(1,2,14,16)          178.0426         estimate D2E/DX2                !
 ! D22   D(1,2,14,17)           57.4148         estimate D2E/DX2                !
 ! D23   D(3,2,14,15)          119.4226         estimate D2E/DX2                !
 ! D24   D(3,2,14,16)           -1.3407         estimate D2E/DX2                !
 ! D25   D(3,2,14,17)         -121.9686         estimate D2E/DX2                !
 ! D26   D(2,3,4,8)            -20.0367         estimate D2E/DX2                !
 ! D27   D(2,3,4,11)          -144.6736         estimate D2E/DX2                !
 ! D28   D(2,3,4,12)            99.4853         estimate D2E/DX2                !
 ! D29   D(13,3,4,8)           160.7917         estimate D2E/DX2                !
 ! D30   D(13,3,4,11)           36.1548         estimate D2E/DX2                !
 ! D31   D(13,3,4,12)          -79.6864         estimate D2E/DX2                !
 ! D32   D(3,4,8,5)             48.0857         estimate D2E/DX2                !
 ! D33   D(3,4,8,18)           -76.246          estimate D2E/DX2                !
 ! D34   D(3,4,8,28)           163.8344         estimate D2E/DX2                !
 ! D35   D(11,4,8,5)           172.2571         estimate D2E/DX2                !
 ! D36   D(11,4,8,18)           47.9254         estimate D2E/DX2                !
 ! D37   D(11,4,8,28)          -71.9942         estimate D2E/DX2                !
 ! D38   D(12,4,8,5)           -72.9462         estimate D2E/DX2                !
 ! D39   D(12,4,8,18)          162.7221         estimate D2E/DX2                !
 ! D40   D(12,4,8,28)           42.8025         estimate D2E/DX2                !
 ! D41   D(1,5,8,4)            -61.7143         estimate D2E/DX2                !
 ! D42   D(1,5,8,18)            62.3267         estimate D2E/DX2                !
 ! D43   D(1,5,8,28)          -174.8292         estimate D2E/DX2                !
 ! D44   D(9,5,8,4)             58.3728         estimate D2E/DX2                !
 ! D45   D(9,5,8,18)          -177.5862         estimate D2E/DX2                !
 ! D46   D(9,5,8,28)           -54.7421         estimate D2E/DX2                !
 ! D47   D(10,5,8,4)           173.7928         estimate D2E/DX2                !
 ! D48   D(10,5,8,18)          -62.1662         estimate D2E/DX2                !
 ! D49   D(10,5,8,28)           60.6779         estimate D2E/DX2                !
 ! D50   D(4,8,18,19)          176.1459         estimate D2E/DX2                !
 ! D51   D(4,8,18,23)          -60.2144         estimate D2E/DX2                !
 ! D52   D(4,8,18,24)           58.067          estimate D2E/DX2                !
 ! D53   D(5,8,18,19)           55.5575         estimate D2E/DX2                !
 ! D54   D(5,8,18,23)          179.1972         estimate D2E/DX2                !
 ! D55   D(5,8,18,24)          -62.5215         estimate D2E/DX2                !
 ! D56   D(28,8,18,19)         -66.7586         estimate D2E/DX2                !
 ! D57   D(28,8,18,23)          56.8812         estimate D2E/DX2                !
 ! D58   D(28,8,18,24)         175.1625         estimate D2E/DX2                !
 ! D59   D(4,8,28,29)         -171.1686         estimate D2E/DX2                !
 ! D60   D(5,8,28,29)          -57.316          estimate D2E/DX2                !
 ! D61   D(18,8,28,29)          67.2788         estimate D2E/DX2                !
 ! D62   D(8,18,19,20)         -59.7587         estimate D2E/DX2                !
 ! D63   D(8,18,19,21)        -179.3257         estimate D2E/DX2                !
 ! D64   D(8,18,19,22)          62.3407         estimate D2E/DX2                !
 ! D65   D(23,18,19,20)        174.4909         estimate D2E/DX2                !
 ! D66   D(23,18,19,21)         54.9239         estimate D2E/DX2                !
 ! D67   D(23,18,19,22)        -63.4097         estimate D2E/DX2                !
 ! D68   D(24,18,19,20)         58.2749         estimate D2E/DX2                !
 ! D69   D(24,18,19,21)        -61.2921         estimate D2E/DX2                !
 ! D70   D(24,18,19,22)       -179.6257         estimate D2E/DX2                !
 ! D71   D(8,18,23,25)         -55.8132         estimate D2E/DX2                !
 ! D72   D(8,18,23,26)        -175.4521         estimate D2E/DX2                !
 ! D73   D(8,18,23,27)          65.3999         estimate D2E/DX2                !
 ! D74   D(19,18,23,25)         70.0676         estimate D2E/DX2                !
 ! D75   D(19,18,23,26)        -49.5713         estimate D2E/DX2                !
 ! D76   D(19,18,23,27)       -168.7192         estimate D2E/DX2                !
 ! D77   D(24,18,23,25)       -173.8902         estimate D2E/DX2                !
 ! D78   D(24,18,23,26)         66.4709         estimate D2E/DX2                !
 ! D79   D(24,18,23,27)        -52.6771         estimate D2E/DX2                !
 --------------------------------------------------------------------------------
 Trust Radius=3.00D-01 FncErr=1.00D-07 GrdErr=1.00D-06
 Number of steps in this run=    173 maximum allowed number of steps=    174.
 GradGradGradGradGradGradGradGradGradGradGradGradGradGradGradGradGradGrad

                          Input orientation:                          
 ---------------------------------------------------------------------
 Center     Atomic      Atomic             Coordinates (Angstroms)
 Number     Number       Type             X           Y           Z
 ---------------------------------------------------------------------
      1          6           0       -0.434622    3.259550    1.861765
      2          6           0        0.987830    3.740821    1.680837
      3          6           0        1.874496    3.021828    1.012095
      4          6           0        1.584861    1.688626    0.364934
      5          6           0       -0.769322    2.065354    0.965359
      6          1           0       -1.121373    4.074861    1.644186
      7          1           0       -0.597143    3.015067    2.910757
      8          6           0        0.339904    1.001824    0.939562
      9          1           0       -0.894088    2.408974   -0.057081
     10          1           0       -1.720226    1.630973    1.259323
     11          1           0        2.451073    1.043703    0.438581
     12          1           0        1.412332    1.826132   -0.699401
     13          1           0        2.877865    3.399393    0.896357
     14          6           0        1.325503    5.065186    2.315049
     15          1           0        0.716892    5.863350    1.896270
     16          1           0        2.367970    5.324342    2.170992
     17          1           0        1.127459    5.045420    3.384614
     18          6           0        0.601204    0.360808    2.332842
     19          6           0       -0.665092   -0.247215    2.957335
     20          1           0       -1.453903    0.480891    3.106151
     21          1           0       -0.432551   -0.669118    3.929494
     22          1           0       -1.063492   -1.057545    2.351191
     23          6           0        1.697055   -0.713935    2.292613
     24          1           0        0.940631    1.152259    2.993715
     25          1           0        1.462846   -1.482206    1.564783
     26          1           0        1.788527   -1.187432    3.265503
     27          1           0        2.669309   -0.304870    2.047003
     28          8           0        0.000000    0.000000    0.000000
     29          1           0       -0.840280   -0.375214    0.224057
 ---------------------------------------------------------------------
                    Distance matrix (angstroms):
                    1          2          3          4          5
     1  C    0.000000
     2  C    1.512523   0.000000
     3  C    2.471938   1.323005   0.000000
     4  C    2.964223   2.509891   1.510012   0.000000
     5  C    1.530252   2.531143   2.811904   2.458579   0.000000
     6  H    1.087979   2.135805   3.237846   3.828094   2.150084
     7  H    1.089298   2.133439   3.116723   3.605801   2.171675
     8  C    2.558842   2.910568   2.537844   1.533562   1.536927
     9  H    2.148617   2.887177   3.030476   2.615757   1.085829
    10  H    2.160550   3.458714   3.862334   3.424449   1.085965
    11  H    3.906746   3.310396   2.138770   1.082438   3.419387
    12  H    3.467779   3.084115   2.138341   1.086960   2.754680
    13  H    3.453134   2.074660   1.078285   2.209298   3.884121
    14  C    2.561997   1.506715   2.484833   3.907861   3.899865
    15  H    2.847270   2.150569   3.193127   4.530638   4.183323
    16  H    3.494783   2.156983   2.624525   4.134434   4.681576
    17  H    2.819308   2.150426   3.206530   4.538254   4.281514
    18  C    3.114090   3.463969   3.232132   2.569697   2.579502
    19  C    3.681140   4.501781   4.573851   3.940851   3.053983
    20  H    3.210666   4.315174   4.681845   4.266964   2.749939
    21  H    4.439588   5.149904   5.239921   4.725992   4.046833
    22  H    4.390026   5.261332   5.202523   4.301215   3.429223
    23  C    4.529709   4.552156   3.953118   3.082342   3.945766
    24  H    2.759222   2.902849   2.879968   2.759205   2.805693
    25  H    5.115939   5.245867   4.556451   3.392447   4.234037
    26  H    5.166093   5.238317   4.775260   4.089803   4.734329
    27  H    4.730094   4.396483   3.573469   2.824784   4.314174
    28  O    3.778853   4.218384   3.697231   2.344444   2.406130
    29  H    4.007263   4.733491   4.419379   3.187568   2.551654
                    6          7          8          9         10
     6  H    0.000000
     7  H    1.732680   0.000000
     8  C    3.474965   2.969312   0.000000
     9  H    2.391892   3.043614   2.120401   0.000000
    10  H    2.545453   2.429869   2.177661   1.738018   0.000000
    11  H    4.837744   4.391987   2.170201   3.646882   4.291647
    12  H    4.119325   4.299394   2.125037   2.464113   3.699676
    13  H    4.124247   4.034996   3.491626   4.014674   4.939787
    14  C    2.723601   2.873051   4.401623   4.196314   4.710079
    15  H    2.577102   3.296753   4.969089   4.282937   4.925267
    16  H    3.743561   3.830391   4.930887   4.909654   5.584395
    17  H    3.004716   2.705757   4.790531   4.783593   4.927942
    18  C    4.151591   2.969026   1.555766   3.484625   2.855661
    19  C    4.540142   3.263323   2.577115   4.024237   2.743017
    20  H    3.894167   2.682213   2.860633   3.746589   2.191892
    21  H    5.310598   3.825982   3.511186   5.057712   3.752111
    22  H    5.181196   4.137242   2.864126   4.224361   2.975165
    23  C    5.594333   4.421641   2.572244   4.689099   4.271310
    24  H    3.822916   2.416958   2.145472   3.775299   3.212077
    25  H    6.129069   5.126467   2.796838   4.829789   4.462862
    26  H    6.227994   4.845438   3.507328   5.583021   4.927424
    27  H    5.806339   4.736851   2.891367   4.948728   4.861681
    28  O    4.534900   4.233169   1.414907   2.570176   2.684240
    29  H    4.679631   4.332606   1.949619   2.798863   2.422987
                   11         12         13         14         15
    11  H    0.000000
    12  H    1.728057   0.000000
    13  H    2.437414   2.677570   0.000000
    14  C    4.578249   4.425598   2.682794   0.000000
    15  H    5.325527   4.849770   3.426473   1.087589   0.000000
    16  H    4.618661   4.624919   2.364343   1.083814   1.758426
    17  H    5.142451   5.208084   3.459010   1.087925   1.747210
    18  C    2.734334   3.464044   4.059516   4.759843   5.521046
    19  C    4.209641   4.688942   5.486158   5.709344   6.354112
    20  H    4.762512   4.950474   5.671425   5.419105   5.928493
    21  H    4.841025   5.572839   6.059006   6.211235   6.937461
    22  H    4.519457   4.873542   6.124960   6.572400   7.160692
    23  C    2.663695   3.935118   4.501479   5.791097   6.661718
    24  H    2.970174   3.783611   3.633373   3.989951   4.842398
    25  H    2.936859   4.009262   5.126312   6.591669   7.390772
    26  H    3.661750   4.994352   5.276217   6.341371   7.262006
    27  H    2.110283   3.696470   3.884462   5.542126   6.471598
    28  O    2.699894   2.412178   4.543285   5.724729   6.203922
    29  H    3.590592   3.282219   5.340810   6.217782   6.643851
                   16         17         18         19         20
    16  H    0.000000
    17  H    1.757710   0.000000
    18  C    5.271085   4.829985   0.000000
    19  C    6.392187   5.604265   1.537267   0.000000
    20  H    6.240213   5.251276   2.199066   1.083747   0.000000
    21  H    6.845204   5.948653   2.163030   1.084975   1.744585
    22  H    7.248165   6.566156   2.187070   1.087551   1.757603
    23  C    6.076653   5.889574   1.535442   2.497884   3.466698
    24  H    4.485582   3.917194   1.085523   2.130304   2.489411
    25  H    6.893173   6.784848   2.174636   2.827105   3.838879
    26  H    6.628492   6.268943   2.162554   2.645604   3.649938
    27  H    5.638635   5.726439   2.191321   3.456914   4.328983
    28  O    6.218449   6.179242   2.435935   3.041265   3.463129
    29  H    6.824102   6.576046   2.658303   2.741876   3.068536
                   21         22         23         24         25
    21  H    0.000000
    22  H    1.743561   0.000000
    23  C    2.686375   2.782467   0.000000
    24  H    2.465507   3.051652   2.132230   0.000000
    25  H    3.137754   2.679769   1.083895   3.042197   0.000000
    26  H    2.375442   2.997808   1.085855   2.503388   1.756532
    27  H    3.646640   3.820060   1.083022   2.451085   1.753342
    28  O    4.009457   2.788820   2.940370   3.342876   2.604880
    29  H    3.739370   2.245016   3.291158   3.629852   2.885718
                   26         27         28         29
    26  H    0.000000
    27  H    1.743398   0.000000
    28  O    3.907983   3.377629   0.000000
    29  H    4.101306   3.955413   0.947131   0.000000
 Stoichiometry    C10H18O
 Framework group  C1[X(C10H18O)]
 Deg. of freedom    81
 Full point group                 C1      NOp   1
 Largest Abelian subgroup         C1      NOp   1
 Largest concise Abelian subgroup C1      NOp   1
                         Standard orientation:                         
 ---------------------------------------------------------------------
 Center     Atomic      Atomic             Coordinates (Angstroms)
 Number     Number       Type             X           Y           Z
 ---------------------------------------------------------------------
      1          6           0       -1.401957    1.211859    0.346849
      2          6           0       -2.086605   -0.035642   -0.165719
      3          6           0       -1.505126   -1.220871   -0.079367
      4          6           0       -0.143527   -1.466011    0.525686
      5          6           0       -0.171122    0.898063    1.200225
      6          1           0       -2.107587    1.794155    0.935675
      7          1           0       -1.136813    1.845488   -0.498599
      8          6           0        0.718189   -0.199307    0.594379
      9          1           0       -0.492198    0.536262    2.172353
     10          1           0        0.397909    1.804404    1.384804
     11          1           0        0.367305   -2.252463   -0.014885
     12          1           0       -0.253691   -1.834023    1.542501
     13          1           0       -2.025743   -2.090052   -0.448394
     14          6           0       -3.446503    0.160765   -0.784019
     15          1           0       -4.146532    0.573202   -0.061036
     16          1           0       -3.855714   -0.771081   -1.156659
     17          1           0       -3.398443    0.863588   -1.613061
     18          6           0        1.313224    0.193675   -0.788339
     19          6           0        2.100118    1.513610   -0.746408
     20          1           0        1.495534    2.355771   -0.430575
     21          1           0        2.482846    1.748031   -1.734203
     22          1           0        2.960437    1.448393   -0.084316
     23          6           0        2.215596   -0.900894   -1.375897
     24          1           0        0.480204    0.334406   -1.469977
     25          1           0        3.010285   -1.162312   -0.686724
     26          1           0        2.670053   -0.551867   -2.298246
     27          1           0        1.668450   -1.804501   -1.614775
     28          8           0        1.759518   -0.505889    1.501904
     29          1           0        2.253829    0.278220    1.696554
 ---------------------------------------------------------------------
 Rotational constants (GHZ):      1.7294381      0.7563100      0.7373792
 Standard basis: 6-311G(2df,2p) (5D, 7F)
 There are   492 symmetry adapted basis functions of A   symmetry.
 Integral buffers will be    131072 words long.
 Raffenetti 2 integral format.
 Two-electron integral symmetry is turned on.
   492 basis functions,   726 primitive gaussians,   547 cartesian basis functions
    43 alpha electrons       43 beta electrons
       nuclear repulsion energy       677.9813752954 Hartrees.
 NAtoms=   29 NActive=   29 NUniq=   29 SFac= 1.00D+00 NAtFMM=   50 NAOKFM=F Big=F
 One-electron integrals computed using PRISM.
 NBasis=   492 RedAO= T  NBF=   492
 NBsUse=   492 1.00D-06 NBFU=   492
 Harris functional with IExCor=  402 diagonalized for initial guess.
 ExpMin= 1.03D-01 ExpMax= 8.59D+03 ExpMxC= 1.30D+03 IAcc=1 IRadAn=         1 AccDes= 0.00D+00
 HarFok:  IExCor=  402 AccDes= 0.00D+00 IRadAn=         1 IDoV= 1
 ScaDFX=  1.000000  1.000000  1.000000  1.000000
 FoFCou: FMM=F IPFlag=           0 FMFlag=      100000 FMFlg1=           0
         NFxFlg=           0 DoJE=T BraDBF=F KetDBF=T FulRan=T
         Omega=  0.000000  0.000000  1.000000  0.000000  0.000000 ICntrl=     500 IOpCl=  0
         NMat0=    1 NMatS0=    1 NMatT0=    0 NMatD0=    1 NMtDS0=    0 NMtDT0=    0
         I1Cent=           4 NGrid=           0.
 Petite list used in FoFCou.
 Initial guess orbital symmetries:
       Occupied  (A) (A) (A) (A) (A) (A) (A) (A) (A) (A) (A) (A)
                 (A) (A) (A) (A) (A) (A) (A) (A) (A) (A) (A) (A)
                 (A) (A) (A) (A) (A) (A) (A) (A) (A) (A) (A) (A)
                 (A) (A) (A) (A) (A) (A) (A)
       Virtual   (A) (A) (A) (A) (A) (A) (A) (A) (A) (A) (A) (A)
                 (A) (A) (A) (A) (A) (A) (A) (A) (A) (A) (A) (A)
                 (A) (A) (A) (A) (A) (A) (A) (A) (A) (A) (A) (A)
                 (A) (A) (A) (A) (A) (A) (A) (A) (A) (A) (A) (A)
                 (A) (A) (A) (A) (A) (A) (A) (A) (A) (A) (A) (A)
                 (A) (A) (A) (A) (A) (A) (A) (A) (A) (A) (A) (A)
                 (A) (A) (A) (A) (A) (A) (A) (A) (A) (A) (A) (A)
                 (A) (A) (A) (A) (A) (A) (A) (A) (A) (A) (A) (A)
                 (A) (A) (A) (A) (A) (A) (A) (A) (A) (A) (A) (A)
                 (A) (A) (A) (A) (A) (A) (A) (A) (A) (A) (A) (A)
                 (A) (A) (A) (A) (A) (A) (A) (A) (A) (A) (A) (A)
                 (A) (A) (A) (A) (A) (A) (A) (A) (A) (A) (A) (A)
                 (A) (A) (A) (A) (A) (A) (A) (A) (A) (A) (A) (A)
                 (A) (A) (A) (A) (A) (A) (A) (A) (A) (A) (A) (A)
                 (A) (A) (A) (A) (A) (A) (A) (A) (A) (A) (A) (A)
                 (A) (A) (A) (A) (A) (A) (A) (A) (A) (A) (A) (A)
                 (A) (A) (A) (A) (A) (A) (A) (A) (A) (A) (A) (A)
                 (A) (A) (A) (A) (A) (A) (A) (A) (A) (A) (A) (A)
                 (A) (A) (A) (A) (A) (A) (A) (A) (A) (A) (A) (A)
                 (A) (A) (A) (A) (A) (A) (A) (A) (A) (A) (A) (A)
                 (A) (A) (A) (A) (A) (A) (A) (A) (A) (A) (A) (A)
                 (A) (A) (A) (A) (A) (A) (A) (A) (A) (A) (A) (A)
                 (A) (A) (A) (A) (A) (A) (A) (A) (A) (A) (A) (A)
                 (A) (A) (A) (A) (A) (A) (A) (A) (A) (A) (A) (A)
                 (A) (A) (A) (A) (A) (A) (A) (A) (A) (A) (A) (A)
                 (A) (A) (A) (A) (A) (A) (A) (A) (A) (A) (A) (A)
                 (A) (A) (A) (A) (A) (A) (A) (A) (A) (A) (A) (A)
                 (A) (A) (A) (A) (A) (A) (A) (A) (A) (A) (A) (A)
                 (A) (A) (A) (A) (A) (A) (A) (A) (A) (A) (A) (A)
                 (A) (A) (A) (A) (A) (A) (A) (A) (A) (A) (A) (A)
                 (A) (A) (A) (A) (A) (A) (A) (A) (A) (A) (A) (A)
                 (A) (A) (A) (A) (A) (A) (A) (A) (A) (A) (A) (A)
                 (A) (A) (A) (A) (A) (A) (A) (A) (A) (A) (A) (A)
                 (A) (A) (A) (A) (A) (A) (A) (A) (A) (A) (A) (A)
                 (A) (A) (A) (A) (A) (A) (A) (A) (A) (A) (A) (A)
                 (A) (A) (A) (A) (A) (A) (A) (A) (A) (A) (A) (A)
                 (A) (A) (A) (A) (A) (A) (A) (A) (A) (A) (A) (A)
                 (A) (A) (A) (A) (A)
 The electronic state of the initial guess is 1-A.
 Requested convergence on RMS density matrix=1.00D-08 within 128 cycles.
 Requested convergence on MAX density matrix=1.00D-06.
 Requested convergence on             energy=1.00D-06.
 No special actions if energy rises.
 Integral accuracy reduced to 1.0D-05 until final iterations.
 Initial convergence to 1.0D-05 achieved.  Increase integral accuracy.
 SCF Done:  E(RB3LYP) =  -467.276357304     A.U. after   13 cycles
             Convg  =    0.5131D-08             -V/T =  2.0040

 **********************************************************************

            Population analysis using the SCF density.

 **********************************************************************

 Orbital symmetries:
       Occupied  (A) (A) (A) (A) (A) (A) (A) (A) (A) (A) (A) (A)
                 (A) (A) (A) (A) (A) (A) (A) (A) (A) (A) (A) (A)
                 (A) (A) (A) (A) (A) (A) (A) (A) (A) (A) (A) (A)
                 (A) (A) (A) (A) (A) (A) (A)
       Virtual   (A) (A) (A) (A) (A) (A) (A) (A) (A) (A) (A) (A)
                 (A) (A) (A) (A) (A) (A) (A) (A) (A) (A) (A) (A)
                 (A) (A) (A) (A) (A) (A) (A) (A) (A) (A) (A) (A)
                 (A) (A) (A) (A) (A) (A) (A) (A) (A) (A) (A) (A)
                 (A) (A) (A) (A) (A) (A) (A) (A) (A) (A) (A) (A)
                 (A) (A) (A) (A) (A) (A) (A) (A) (A) (A) (A) (A)
                 (A) (A) (A) (A) (A) (A) (A) (A) (A) (A) (A) (A)
                 (A) (A) (A) (A) (A) (A) (A) (A) (A) (A) (A) (A)
                 (A) (A) (A) (A) (A) (A) (A) (A) (A) (A) (A) (A)
                 (A) (A) (A) (A) (A) (A) (A) (A) (A) (A) (A) (A)
                 (A) (A) (A) (A) (A) (A) (A) (A) (A) (A) (A) (A)
                 (A) (A) (A) (A) (A) (A) (A) (A) (A) (A) (A) (A)
                 (A) (A) (A) (A) (A) (A) (A) (A) (A) (A) (A) (A)
                 (A) (A) (A) (A) (A) (A) (A) (A) (A) (A) (A) (A)
                 (A) (A) (A) (A) (A) (A) (A) (A) (A) (A) (A) (A)
                 (A) (A) (A) (A) (A) (A) (A) (A) (A) (A) (A) (A)
                 (A) (A) (A) (A) (A) (A) (A) (A) (A) (A) (A) (A)
                 (A) (A) (A) (A) (A) (A) (A) (A) (A) (A) (A) (A)
                 (A) (A) (A) (A) (A) (A) (A) (A) (A) (A) (A) (A)
                 (A) (A) (A) (A) (A) (A) (A) (A) (A) (A) (A) (A)
                 (A) (A) (A) (A) (A) (A) (A) (A) (A) (A) (A) (A)
                 (A) (A) (A) (A) (A) (A) (A) (A) (A) (A) (A) (A)
                 (A) (A) (A) (A) (A) (A) (A) (A) (A) (A) (A) (A)
                 (A) (A) (A) (A) (A) (A) (A) (A) (A) (A) (A) (A)
                 (A) (A) (A) (A) (A) (A) (A) (A) (A) (A) (A) (A)
                 (A) (A) (A) (A) (A) (A) (A) (A) (A) (A) (A) (A)
                 (A) (A) (A) (A) (A) (A) (A) (A) (A) (A) (A) (A)
                 (A) (A) (A) (A) (A) (A) (A) (A) (A) (A) (A) (A)
                 (A) (A) (A) (A) (A) (A) (A) (A) (A) (A) (A) (A)
                 (A) (A) (A) (A) (A) (A) (A) (A) (A) (A) (A) (A)
                 (A) (A) (A) (A) (A) (A) (A) (A) (A) (A) (A) (A)
                 (A) (A) (A) (A) (A) (A) (A) (A) (A) (A) (A) (A)
                 (A) (A) (A) (A) (A) (A) (A) (A) (A) (A) (A) (A)
                 (A) (A) (A) (A) (A) (A) (A) (A) (A) (A) (A) (A)
                 (A) (A) (A) (A) (A) (A) (A) (A) (A) (A) (A) (A)
                 (A) (A) (A) (A) (A) (A) (A) (A) (A) (A) (A) (A)
                 (A) (A) (A) (A) (A) (A) (A) (A) (A) (A) (A) (A)
                 (A) (A) (A) (A) (A)
 The electronic state is 1-A.
 Alpha  occ. eigenvalues --  -19.10824 -10.21849 -10.16752 -10.16694 -10.16665
 Alpha  occ. eigenvalues --  -10.15943 -10.15881 -10.15656 -10.15641 -10.15352
 Alpha  occ. eigenvalues --  -10.14591  -1.02581  -0.84038  -0.79415  -0.75144
 Alpha  occ. eigenvalues --   -0.74522  -0.68461  -0.67712  -0.62525  -0.61375
 Alpha  occ. eigenvalues --   -0.56733  -0.51284  -0.49368  -0.46976  -0.46120
 Alpha  occ. eigenvalues --   -0.45146  -0.43519  -0.42197  -0.41850  -0.40239
 Alpha  occ. eigenvalues --   -0.39324  -0.38759  -0.38638  -0.37725  -0.36707
 Alpha  occ. eigenvalues --   -0.35396  -0.34601  -0.33487  -0.33164  -0.32002
 Alpha  occ. eigenvalues --   -0.29572  -0.26690  -0.23786
 Alpha virt. eigenvalues --    0.02083   0.03201   0.04043   0.06198   0.06399
 Alpha virt. eigenvalues --    0.07119   0.08287   0.09526   0.09971   0.11153
 Alpha virt. eigenvalues --    0.11502   0.12170   0.12555   0.12971   0.14679
 Alpha virt. eigenvalues --    0.14933   0.15931   0.16396   0.17550   0.18756
 Alpha virt. eigenvalues --    0.19118   0.20670   0.22410   0.22558   0.23512
 Alpha virt. eigenvalues --    0.24390   0.25564   0.26035   0.27526   0.28072
 Alpha virt. eigenvalues --    0.29504   0.30294   0.30517   0.31067   0.33110
 Alpha virt. eigenvalues --    0.35275   0.36143   0.37076   0.37312   0.38733
 Alpha virt. eigenvalues --    0.40270   0.40900   0.41659   0.42331   0.42977
 Alpha virt. eigenvalues --    0.44033   0.45372   0.45876   0.46163   0.47044
 Alpha virt. eigenvalues --    0.47642   0.47787   0.48391   0.48828   0.48929
 Alpha virt. eigenvalues --    0.49649   0.50334   0.50938   0.51263   0.51837
 Alpha virt. eigenvalues --    0.52162   0.53051   0.53240   0.53788   0.53900
 Alpha virt. eigenvalues --    0.54578   0.55597   0.56347   0.56620   0.57587
 Alpha virt. eigenvalues --    0.58305   0.59431   0.60435   0.61443   0.62259
 Alpha virt. eigenvalues --    0.63653   0.64479   0.65353   0.65964   0.70414
 Alpha virt. eigenvalues --    0.72184   0.73567   0.74208   0.74998   0.75897
 Alpha virt. eigenvalues --    0.78521   0.79173   0.81326   0.81989   0.82985
 Alpha virt. eigenvalues --    0.83983   0.84852   0.86182   0.86784   0.88549
 Alpha virt. eigenvalues --    0.89093   0.90121   0.90596   0.91867   0.93237
 Alpha virt. eigenvalues --    0.95383   0.95967   0.97435   0.98342   0.98567
 Alpha virt. eigenvalues --    0.99891   1.01267   1.01908   1.03089   1.03464
 Alpha virt. eigenvalues --    1.04142   1.05246   1.05660   1.06437   1.07108
 Alpha virt. eigenvalues --    1.07957   1.08869   1.10200   1.11160   1.11214
 Alpha virt. eigenvalues --    1.12649   1.13261   1.13819   1.15166   1.16596
 Alpha virt. eigenvalues --    1.16848   1.17902   1.18533   1.19166   1.19754
 Alpha virt. eigenvalues --    1.20391   1.21143   1.22087   1.22629   1.24256
 Alpha virt. eigenvalues --    1.24516   1.25884   1.27360   1.28092   1.28442
 Alpha virt. eigenvalues --    1.28962   1.30116   1.30211   1.31026   1.31605
 Alpha virt. eigenvalues --    1.32245   1.32428   1.32963   1.34313   1.34576
 Alpha virt. eigenvalues --    1.35745   1.36581   1.37263   1.38008   1.39783
 Alpha virt. eigenvalues --    1.40295   1.40687   1.41829   1.41864   1.42247
 Alpha virt. eigenvalues --    1.43665   1.44645   1.45687   1.46480   1.46883
 Alpha virt. eigenvalues --    1.47653   1.48159   1.49289   1.50190   1.51233
 Alpha virt. eigenvalues --    1.52332   1.53290   1.53782   1.54856   1.57009
 Alpha virt. eigenvalues --    1.59018   1.59555   1.60490   1.62043   1.64347
 Alpha virt. eigenvalues --    1.65274   1.68469   1.69086   1.71132   1.72896
 Alpha virt. eigenvalues --    1.74797   1.75484   1.77016   1.78589   1.80184
 Alpha virt. eigenvalues --    1.84850   1.86532   1.88299   1.91833   1.94515
 Alpha virt. eigenvalues --    1.98745   2.04526   2.15661   2.19559   2.28120
 Alpha virt. eigenvalues --    2.30382   2.34114   2.37987   2.40391   2.43988
 Alpha virt. eigenvalues --    2.44866   2.48651   2.50958   2.55632   2.57629
 Alpha virt. eigenvalues --    2.59096   2.60006   2.62130   2.64891   2.66015
 Alpha virt. eigenvalues --    2.68443   2.70097   2.71049   2.72939   2.73463
 Alpha virt. eigenvalues --    2.74605   2.76358   2.77579   2.78636   2.80248
 Alpha virt. eigenvalues --    2.80706   2.81951   2.83261   2.85172   2.86760
 Alpha virt. eigenvalues --    2.86941   2.87847   2.89921   2.90392   2.91853
 Alpha virt. eigenvalues --    2.92831   2.93407   2.94700   2.95600   2.97035
 Alpha virt. eigenvalues --    2.97687   2.98297   2.98775   3.00714   3.01955
 Alpha virt. eigenvalues --    3.03928   3.05498   3.06511   3.07557   3.08873
 Alpha virt. eigenvalues --    3.12101   3.12936   3.13192   3.13869   3.15113
 Alpha virt. eigenvalues --    3.15838   3.17401   3.17692   3.20427   3.20886
 Alpha virt. eigenvalues --    3.22690   3.23537   3.24387   3.25634   3.26814
 Alpha virt. eigenvalues --    3.27173   3.27962   3.30073   3.30814   3.31411
 Alpha virt. eigenvalues --    3.31988   3.33735   3.33950   3.35179   3.36518
 Alpha virt. eigenvalues --    3.36857   3.38141   3.39112   3.40748   3.41516
 Alpha virt. eigenvalues --    3.42054   3.43517   3.45743   3.47384   3.47926
 Alpha virt. eigenvalues --    3.49361   3.52088   3.52117   3.53734   3.54383
 Alpha virt. eigenvalues --    3.54827   3.56282   3.56577   3.58339   3.60322
 Alpha virt. eigenvalues --    3.60570   3.61234   3.62717   3.65520   3.66002
 Alpha virt. eigenvalues --    3.66972   3.67897   3.70680   3.71087   3.72318
 Alpha virt. eigenvalues --    3.72908   3.73990   3.74460   3.77384   3.78140
 Alpha virt. eigenvalues --    3.80003   3.80538   3.81781   3.82123   3.82584
 Alpha virt. eigenvalues --    3.83537   3.84540   3.86553   3.87642   3.88652
 Alpha virt. eigenvalues --    3.89691   3.91283   3.91686   3.93938   3.94444
 Alpha virt. eigenvalues --    3.96422   3.96643   3.98980   3.99393   4.01707
 Alpha virt. eigenvalues --    4.02819   4.03087   4.04736   4.05856   4.07124
 Alpha virt. eigenvalues --    4.08240   4.10132   4.11464   4.11544   4.13104
 Alpha virt. eigenvalues --    4.14783   4.15332   4.16105   4.17425   4.19309
 Alpha virt. eigenvalues --    4.20449   4.21830   4.23053   4.23855   4.24531
 Alpha virt. eigenvalues --    4.24680   4.25671   4.27604   4.29103   4.29829
 Alpha virt. eigenvalues --    4.30821   4.30889   4.32334   4.33777   4.34925
 Alpha virt. eigenvalues --    4.35992   4.37858   4.39556   4.41136   4.42669
 Alpha virt. eigenvalues --    4.43303   4.45159   4.45509   4.48551   4.50026
 Alpha virt. eigenvalues --    4.50890   4.51394   4.52139   4.52557   4.55249
 Alpha virt. eigenvalues --    4.56453   4.57070   4.58924   4.59134   4.61194
 Alpha virt. eigenvalues --    4.64090   4.65142   4.65509   4.66667   4.69232
 Alpha virt. eigenvalues --    4.70460   4.71618   4.73307   4.74652   4.77088
 Alpha virt. eigenvalues --    4.78426   4.79639   4.82428   4.84085   4.86295
 Alpha virt. eigenvalues --    4.89141   4.89875   4.94415   4.97821   5.03743
 Alpha virt. eigenvalues --    5.08426   5.17834   5.21817   5.23537   5.25693
 Alpha virt. eigenvalues --    5.30190   5.34967   5.39316   5.42329   5.43269
 Alpha virt. eigenvalues --    5.48398   5.50298   5.53644   5.57000   5.58891
 Alpha virt. eigenvalues --    5.63289   5.64944   5.67189   5.69122   5.70280
 Alpha virt. eigenvalues --    5.70678   5.72543   5.73608   5.76811   5.78024
 Alpha virt. eigenvalues --    5.81090   5.86827   5.87544   5.95338   5.97487
 Alpha virt. eigenvalues --    6.08933   6.63049   7.06375   7.25688   7.30289
 Alpha virt. eigenvalues --    7.38566   7.66092   7.68422  23.99954  24.24545
 Alpha virt. eigenvalues --   24.32936  24.36195  24.38979  24.42326  24.44033
 Alpha virt. eigenvalues --   24.44545  24.48677  24.90920  50.15036
          Condensed to atoms (all electrons):
              1          2          3          4          5          6
     1  C    5.017513   0.327831  -0.044083  -0.009584   0.254068   0.398681
     2  C    0.327831   5.090806   0.533976  -0.065934  -0.056319  -0.039020
     3  C   -0.044083   0.533976   5.124854   0.266529  -0.007446   0.003145
     4  C   -0.009584  -0.065934   0.266529   4.918018  -0.056503  -0.000503
     5  C    0.254068  -0.056319  -0.007446  -0.056503   4.941786  -0.014747
     6  H    0.398681  -0.039020   0.003145  -0.000503  -0.014747   0.647891
     7  H    0.392902  -0.046117  -0.003138   0.002242  -0.035236  -0.045718
     8  C   -0.067696  -0.007507  -0.041745   0.369071   0.391413   0.004707
     9  H   -0.026668  -0.000309   0.003833  -0.011053   0.394553  -0.011697
    10  H   -0.026592   0.004713  -0.000515   0.006965   0.394462  -0.002808
    11  H   -0.000772   0.005232  -0.042918   0.409379   0.006912   0.000033
    12  H    0.001253  -0.001219  -0.033782   0.383243  -0.005617   0.000316
    13  H    0.008648  -0.040391   0.425950  -0.040600  -0.000693  -0.000537
    14  C   -0.067574   0.407224  -0.056011   0.004727   0.003469  -0.002388
    15  H   -0.002118  -0.043045   0.000252  -0.000228   0.000352   0.004173
    16  H    0.006005  -0.027225  -0.008468  -0.000461  -0.000452  -0.000119
    17  H    0.001235  -0.042474   0.000415  -0.000187  -0.000254  -0.001072
    18  C    0.005952  -0.005807   0.004498  -0.083211  -0.062643  -0.000195
    19  C   -0.000060   0.000432  -0.000717   0.004181  -0.013011  -0.000071
    20  H   -0.001436   0.000002  -0.000092   0.000054  -0.000979  -0.000025
    21  H    0.000033   0.000012  -0.000009  -0.000311   0.000117   0.000000
    22  H   -0.000136  -0.000012  -0.000115   0.000487  -0.000905   0.000005
    23  C   -0.001003   0.000462   0.001488  -0.008028   0.003986   0.000018
    24  H   -0.005093   0.007383   0.003597   0.001463   0.001269   0.000764
    25  H   -0.000264   0.000007   0.000285   0.000931   0.000577   0.000008
    26  H    0.000012  -0.000023  -0.000086   0.000228  -0.000298  -0.000002
    27  H    0.000112  -0.000061   0.001547  -0.004469  -0.000195   0.000001
    28  O    0.005261   0.000454   0.000220  -0.018380  -0.037756  -0.000246
    29  H    0.000370  -0.000047  -0.000601   0.004472   0.002462  -0.000037
              7          8          9         10         11         12
     1  C    0.392902  -0.067696  -0.026668  -0.026592  -0.000772   0.001253
     2  C   -0.046117  -0.007507  -0.000309   0.004713   0.005232  -0.001219
     3  C   -0.003138  -0.041745   0.003833  -0.000515  -0.042918  -0.033782
     4  C    0.002242   0.369071  -0.011053   0.006965   0.409379   0.383243
     5  C   -0.035236   0.391413   0.394553   0.394462   0.006912  -0.005617
     6  H   -0.045718   0.004707  -0.011697  -0.002808   0.000033   0.000316
     7  H    0.653496   0.000017   0.008707  -0.009409   0.000281  -0.000473
     8  C    0.000017   4.951503  -0.042898  -0.037777  -0.025640  -0.033046
     9  H    0.008707  -0.042898   0.636158  -0.039084  -0.000188   0.003736
    10  H   -0.009409  -0.037777  -0.039084   0.650045  -0.000665  -0.000468
    11  H    0.000281  -0.025640  -0.000188  -0.000665   0.630864  -0.037592
    12  H   -0.000473  -0.033046   0.003736  -0.000468  -0.037592   0.632161
    13  H   -0.000535   0.004716  -0.000234   0.000121  -0.006282   0.000231
    14  C    0.000350  -0.000532   0.000049  -0.000266  -0.000206  -0.000242
    15  H   -0.001237  -0.000055  -0.000094  -0.000025  -0.000013   0.000151
    16  H   -0.000450   0.000097  -0.000003   0.000031  -0.000070  -0.000008
    17  H    0.004576   0.000124   0.000048  -0.000002   0.000081  -0.000047
    18  C    0.000657   0.305492   0.009414  -0.007302  -0.009050   0.010109
    19  C   -0.000125  -0.041227  -0.000490   0.001567   0.000117  -0.000571
    20  H    0.002214   0.000145  -0.000033  -0.002478   0.000045  -0.000001
    21  H   -0.000004   0.003857   0.000042  -0.000199  -0.000027   0.000027
    22  H    0.000017  -0.000344  -0.000402   0.001764   0.000058  -0.000125
    23  C   -0.000058  -0.049118  -0.000424  -0.000153  -0.001104  -0.000222
    24  H   -0.004874  -0.030860  -0.000851   0.000417  -0.000995  -0.000061
    25  H    0.000012  -0.011833  -0.000150  -0.000177   0.003095  -0.000395
    26  H    0.000031   0.004869   0.000032   0.000004  -0.000305   0.000039
    27  H   -0.000056   0.001433   0.000012   0.000026  -0.001493   0.000044
    28  O    0.000029   0.221721   0.010228   0.003099   0.003229   0.010552
    29  H    0.000037  -0.070196   0.000791   0.007220  -0.000461   0.000104
             13         14         15         16         17         18
     1  C    0.008648  -0.067574  -0.002118   0.006005   0.001235   0.005952
     2  C   -0.040391   0.407224  -0.043045  -0.027225  -0.042474  -0.005807
     3  C    0.425950  -0.056011   0.000252  -0.008468   0.000415   0.004498
     4  C   -0.040600   0.004727  -0.000228  -0.000461  -0.000187  -0.083211
     5  C   -0.000693   0.003469   0.000352  -0.000452  -0.000254  -0.062643
     6  H   -0.000537  -0.002388   0.004173  -0.000119  -0.001072  -0.000195
     7  H   -0.000535   0.000350  -0.001237  -0.000450   0.004576   0.000657
     8  C    0.004716  -0.000532  -0.000055   0.000097   0.000124   0.305492
     9  H   -0.000234   0.000049  -0.000094  -0.000003   0.000048   0.009414
    10  H    0.000121  -0.000266  -0.000025   0.000031  -0.000002  -0.007302
    11  H   -0.006282  -0.000206  -0.000013  -0.000070   0.000081  -0.009050
    12  H    0.000231  -0.000242   0.000151  -0.000008  -0.000047   0.010109
    13  H    0.591800  -0.014868   0.000281   0.006947   0.000335  -0.000630
    14  C   -0.014868   4.688869   0.399330   0.399261   0.394326   0.000012
    15  H    0.000281   0.399330   0.640353  -0.029024  -0.043165  -0.000004
    16  H    0.006947   0.399261  -0.029024   0.619814  -0.030195  -0.000016
    17  H    0.000335   0.394326  -0.043165  -0.030195   0.646708   0.000074
    18  C   -0.000630   0.000012  -0.000004  -0.000016   0.000074   5.201832
    19  C    0.000024   0.000003   0.000000   0.000000  -0.000005   0.317058
    20  H   -0.000005   0.000008  -0.000001  -0.000001   0.000004  -0.034447
    21  H   -0.000002  -0.000001   0.000000   0.000000   0.000000  -0.027855
    22  H    0.000002   0.000000   0.000000   0.000000   0.000001  -0.053668
    23  C   -0.000016   0.000011   0.000000   0.000001  -0.000004   0.345350
    24  H    0.000117   0.000007   0.000088   0.000003  -0.000392   0.372056
    25  H   -0.000005   0.000001   0.000000   0.000000   0.000000  -0.042458
    26  H    0.000003  -0.000001   0.000000   0.000000   0.000001  -0.035007
    27  H    0.000092   0.000002   0.000001   0.000001  -0.000008  -0.031745
    28  O   -0.000098   0.000000   0.000000   0.000000   0.000000  -0.080767
    29  H    0.000039  -0.000004   0.000000   0.000000   0.000001  -0.004447
             19         20         21         22         23         24
     1  C   -0.000060  -0.001436   0.000033  -0.000136  -0.001003  -0.005093
     2  C    0.000432   0.000002   0.000012  -0.000012   0.000462   0.007383
     3  C   -0.000717  -0.000092  -0.000009  -0.000115   0.001488   0.003597
     4  C    0.004181   0.000054  -0.000311   0.000487  -0.008028   0.001463
     5  C   -0.013011  -0.000979   0.000117  -0.000905   0.003986   0.001269
     6  H   -0.000071  -0.000025   0.000000   0.000005   0.000018   0.000764
     7  H   -0.000125   0.002214  -0.000004   0.000017  -0.000058  -0.004874
     8  C   -0.041227   0.000145   0.003857  -0.000344  -0.049118  -0.030860
     9  H   -0.000490  -0.000033   0.000042  -0.000402  -0.000424  -0.000851
    10  H    0.001567  -0.002478  -0.000199   0.001764  -0.000153   0.000417
    11  H    0.000117   0.000045  -0.000027   0.000058  -0.001104  -0.000995
    12  H   -0.000571  -0.000001   0.000027  -0.000125  -0.000222  -0.000061
    13  H    0.000024  -0.000005  -0.000002   0.000002  -0.000016   0.000117
    14  C    0.000003   0.000008  -0.000001   0.000000   0.000011   0.000007
    15  H    0.000000  -0.000001   0.000000   0.000000   0.000000   0.000088
    16  H    0.000000  -0.000001   0.000000   0.000000   0.000001   0.000003
    17  H   -0.000005   0.000004   0.000000   0.000001  -0.000004  -0.000392
    18  C    0.317058  -0.034447  -0.027855  -0.053668   0.345350   0.372056
    19  C    4.818433   0.402659   0.404909   0.395897  -0.059976  -0.030678
    20  H    0.402659   0.626203  -0.029871  -0.037409   0.007107  -0.005725
    21  H    0.404909  -0.029871   0.616352  -0.032980  -0.006987  -0.005280
    22  H    0.395897  -0.037409  -0.032980   0.645433  -0.004009   0.010067
    23  C   -0.059976   0.007107  -0.006987  -0.004009   4.778040  -0.029279
    24  H   -0.030678  -0.005725  -0.005280   0.010067  -0.029279   0.646918
    25  H   -0.003176  -0.000003  -0.000656   0.006098   0.390014   0.008485
    26  H   -0.008820   0.000121   0.004123  -0.000521   0.408657  -0.004615
    27  H    0.006653  -0.000615   0.000046  -0.000312   0.403123  -0.005446
    28  O    0.006642  -0.000529  -0.000053   0.006767  -0.002297   0.004793
    29  H    0.005753  -0.000574  -0.000087   0.003553   0.000130  -0.000712
             25         26         27         28         29
     1  C   -0.000264   0.000012   0.000112   0.005261   0.000370
     2  C    0.000007  -0.000023  -0.000061   0.000454  -0.000047
     3  C    0.000285  -0.000086   0.001547   0.000220  -0.000601
     4  C    0.000931   0.000228  -0.004469  -0.018380   0.004472
     5  C    0.000577  -0.000298  -0.000195  -0.037756   0.002462
     6  H    0.000008  -0.000002   0.000001  -0.000246  -0.000037
     7  H    0.000012   0.000031  -0.000056   0.000029   0.000037
     8  C   -0.011833   0.004869   0.001433   0.221721  -0.070196
     9  H   -0.000150   0.000032   0.000012   0.010228   0.000791
    10  H   -0.000177   0.000004   0.000026   0.003099   0.007220
    11  H    0.003095  -0.000305  -0.001493   0.003229  -0.000461
    12  H   -0.000395   0.000039   0.000044   0.010552   0.000104
    13  H   -0.000005   0.000003   0.000092  -0.000098   0.000039
    14  C    0.000001  -0.000001   0.000002   0.000000  -0.000004
    15  H    0.000000   0.000000   0.000001   0.000000   0.000000
    16  H    0.000000   0.000000   0.000001   0.000000   0.000000
    17  H    0.000000   0.000001  -0.000008   0.000000   0.000001
    18  C   -0.042458  -0.035007  -0.031745  -0.080767  -0.004447
    19  C   -0.003176  -0.008820   0.006653   0.006642   0.005753
    20  H   -0.000003   0.000121  -0.000615  -0.000529  -0.000574
    21  H   -0.000656   0.004123   0.000046  -0.000053  -0.000087
    22  H    0.006098  -0.000521  -0.000312   0.006767   0.003553
    23  C    0.390014   0.408657   0.403123  -0.002297   0.000130
    24  H    0.008485  -0.004615  -0.005446   0.004793  -0.000712
    25  H    0.619354  -0.032652  -0.034935   0.024789  -0.001861
    26  H   -0.032652   0.635859  -0.033101  -0.000002  -0.000021
    27  H   -0.034935  -0.033101   0.629118  -0.001419   0.000122
    28  O    0.024789  -0.000002  -0.001419   8.013347   0.351610
    29  H   -0.001861  -0.000021   0.000122   0.351610   0.443549
 Mulliken atomic charges:
              1
     1  C   -0.166799
     2  C   -0.003024
     3  C   -0.130860
     4  C   -0.072538
     5  C   -0.102373
     6  H    0.059444
     7  H    0.081863
     8  C    0.201312
     9  H    0.066978
    10  H    0.057484
    11  H    0.068458
    12  H    0.071903
    13  H    0.065591
    14  C   -0.155556
    15  H    0.074029
    16  H    0.064331
    17  H    0.069878
    18  C   -0.093254
    19  C   -0.205402
    20  H    0.075664
    21  H    0.074802
    22  H    0.060791
    23  C   -0.175706
    24  H    0.067435
    25  H    0.074908
    26  H    0.061476
    27  H    0.071522
    28  O   -0.521193
    29  H    0.258837
 Sum of Mulliken atomic charges =   0.00000
 Mulliken charges with hydrogens summed into heavy atoms:
              1
     1  C   -0.025492
     2  C   -0.003024
     3  C   -0.065269
     4  C    0.067823
     5  C    0.022089
     8  C    0.201312
    14  C    0.052682
    18  C   -0.025820
    19  C    0.005854
    23  C    0.032201
    28  O   -0.262356
 Sum of Mulliken charges with hydrogens summed into heavy atoms =   0.00000
 Electronic spatial extent (au):  <R**2>=           1922.2806
 Charge=              0.0000 electrons
 Dipole moment (field-independent basis, Debye):
    X=             -0.4260    Y=              1.4176    Z=             -0.4699  Tot=              1.5530
 Quadrupole moment (field-independent basis, Debye-Ang):
   XX=            -69.7665   YY=            -69.8305   ZZ=            -71.6095
   XY=              2.5372   XZ=             -0.0139   YZ=              2.4512
 Traceless Quadrupole moment (field-independent basis, Debye-Ang):
   XX=              0.6357   YY=              0.5717   ZZ=             -1.2073
   XY=              2.5372   XZ=             -0.0139   YZ=              2.4512
 Octapole moment (field-independent basis, Debye-Ang**2):
  XXX=              7.9569  YYY=             -5.4351  ZZZ=              5.9571  XYY=             -1.2844
  XXY=              7.3197  XXZ=              3.9074  XZZ=              3.1597  YZZ=              5.2457
  YYZ=              1.1057  XYZ=              3.5332
 Hexadecapole moment (field-independent basis, Debye-Ang**3):
 XXXX=          -1600.4373 YYYY=           -553.9816 ZZZZ=           -475.3208 XXXY=              8.3289
 XXXZ=             30.1401 YYYX=             -0.4689 YYYZ=              1.8384 ZZZX=              9.1974
 ZZZY=             -1.6170 XXYY=           -365.8982 XXZZ=           -342.0286 YYZZ=           -172.6193
 XXYZ=             14.5919 YYXZ=              6.0288 ZZXY=              9.0930
 N-N= 6.779813752954D+02 E-N=-2.442198981375D+03  KE= 4.654191800983D+02
 Calling FoFJK, ICntrl=      2127 FMM=F ISym2X=0 I1Cent= 0 IOpClX= 0 NMat=1 NMatS=1 NMatT=0.
 ***** Axes restored to original set *****
 -------------------------------------------------------------------
 Center     Atomic                   Forces (Hartrees/Bohr)
 Number     Number              X              Y              Z
 -------------------------------------------------------------------
      1        6           0.004409155   -0.001380859   -0.003990496
      2        6          -0.006782542    0.006724773    0.006155899
      3        6           0.002097155   -0.008273398   -0.005312172
      4        6          -0.000973906    0.004792091    0.005636132
      5        6           0.002137169    0.002221452    0.003863434
      6        1          -0.002389651    0.003229770   -0.000185650
      7        1          -0.000778525   -0.000726236    0.004122067
      8        6           0.000264662    0.005570816    0.003792462
      9        1          -0.000312969    0.000940321   -0.003825173
     10        1          -0.003082053   -0.002377246    0.001311582
     11        1           0.003564128   -0.003014945    0.000424161
     12        1          -0.000765119   -0.000087452   -0.004579829
     13        1           0.004392176    0.001797083   -0.000427738
     14        6          -0.000769074   -0.005346274   -0.002585926
     15        1          -0.002283666    0.002889143   -0.001052056
     16        1           0.003519681    0.000756389   -0.000560606
     17        1          -0.000957637    0.000311528    0.003616084
     18        6          -0.000681705   -0.004396896    0.000813696
     19        6           0.002385734    0.002265282   -0.001649467
     20        1          -0.002848040    0.002615885    0.000224396
     21        1           0.000784261   -0.001541971    0.002977240
     22        1          -0.001100458   -0.002578128   -0.002276015
     23        6          -0.001665229    0.002914551    0.000664030
     24        1           0.001463061    0.003694113    0.002195398
     25        1          -0.001199388   -0.002346997   -0.002878015
     26        1           0.000205822   -0.001461316    0.002901261
     27        1           0.003433083    0.001487849   -0.001251875
     28        8           0.011050521   -0.003265976   -0.012474760
     29        1          -0.013116646   -0.005413352    0.004351937
 -------------------------------------------------------------------
 Cartesian Forces:  Max     0.013116646 RMS     0.003806042

 GradGradGradGradGradGradGradGradGradGradGradGradGradGradGradGradGradGrad
 Berny optimization.
 Internal  Forces:  Max     0.014803825 RMS     0.002172255
 Search for a local minimum.
 Step number   1 out of a maximum of  173
 All quantities printed in internal units (Hartrees-Bohrs-Radians)
 Mixed Optimization -- RFO/linear search
 Second derivative matrix not updated -- first step.
 ITU=  0
     Eigenvalues ---    0.00230   0.00273   0.00297   0.00525   0.00607
     Eigenvalues ---    0.00677   0.01147   0.01265   0.01495   0.01741
     Eigenvalues ---    0.02946   0.03289   0.03312   0.04057   0.04563
     Eigenvalues ---    0.04779   0.05012   0.05176   0.05301   0.05318
     Eigenvalues ---    0.05457   0.05540   0.05566   0.05715   0.06093
     Eigenvalues ---    0.06707   0.07064   0.07228   0.08082   0.08462
     Eigenvalues ---    0.09428   0.09446   0.10069   0.12004   0.14183
     Eigenvalues ---    0.15998   0.16000   0.16000   0.16000   0.16000
     Eigenvalues ---    0.16000   0.16000   0.16000   0.16000   0.16000
     Eigenvalues ---    0.16000   0.16558   0.16606   0.17360   0.19188
     Eigenvalues ---    0.23202   0.24998   0.27167   0.27612   0.28271
     Eigenvalues ---    0.28539   0.28762   0.28927   0.30573   0.30942
     Eigenvalues ---    0.31683   0.34894   0.35047   0.35054   0.35093
     Eigenvalues ---    0.35097   0.35166   0.35283   0.35296   0.35299
     Eigenvalues ---    0.35335   0.35400   0.35528   0.35537   0.35545
     Eigenvalues ---    0.35632   0.35701   0.36202   0.43237   0.58336
     Eigenvalues ---    0.58447
 RFO step:  Lambda=-1.92816478D-03 EMin= 2.30000000D-03
 Linear search not attempted -- first point.
 Iteration  1 RMS(Cart)=  0.01491464 RMS(Int)=  0.00007656
 Iteration  2 RMS(Cart)=  0.00012779 RMS(Int)=  0.00001589
 Iteration  3 RMS(Cart)=  0.00000001 RMS(Int)=  0.00001589
 Variable       Old X    -DE/DX   Delta X   Delta X   Delta X     New X
                                 (Linear)    (Quad)   (Total)
    R1        2.85825  -0.00096   0.00000  -0.00308  -0.00308   2.85518
    R2        2.89176   0.00125   0.00000   0.00377   0.00378   2.89553
    R3        2.05598   0.00397   0.00000   0.01126   0.01126   2.06724
    R4        2.05847   0.00425   0.00000   0.01210   0.01210   2.07058
    R5        2.50012   0.00969   0.00000   0.01596   0.01596   2.51608
    R6        2.84728  -0.00158   0.00000  -0.00494  -0.00494   2.84234
    R7        2.85351  -0.00129   0.00000  -0.00373  -0.00373   2.84977
    R8        2.03766   0.00476   0.00000   0.01308   0.01308   2.05075
    R9        2.89801   0.00158   0.00000   0.00527   0.00527   2.90328
   R10        2.04551   0.00468   0.00000   0.01304   0.01304   2.05855
   R11        2.05406   0.00459   0.00000   0.01299   0.01299   2.06704
   R12        2.90437   0.00202   0.00000   0.00686   0.00686   2.91123
   R13        2.05192   0.00394   0.00000   0.01109   0.01109   2.06301
   R14        2.05218   0.00400   0.00000   0.01129   0.01129   2.06346
   R15        2.93997   0.00141   0.00000   0.00514   0.00514   2.94511
   R16        2.67379   0.01204   0.00000   0.02772   0.02772   2.70151
   R17        2.05524   0.00381   0.00000   0.01079   0.01079   2.06604
   R18        2.04811   0.00363   0.00000   0.01017   0.01017   2.05828
   R19        2.05588   0.00373   0.00000   0.01057   0.01057   2.06646
   R20        2.90501   0.00004   0.00000   0.00014   0.00014   2.90516
   R21        2.90156   0.00016   0.00000   0.00053   0.00053   2.90210
   R22        2.05134   0.00449   0.00000   0.01263   0.01263   2.06397
   R23        2.04798   0.00386   0.00000   0.01080   0.01080   2.05878
   R24        2.05031   0.00343   0.00000   0.00965   0.00965   2.05995
   R25        2.05517   0.00360   0.00000   0.01019   0.01019   2.06536
   R26        2.04826   0.00385   0.00000   0.01078   0.01078   2.05904
   R27        2.05197   0.00326   0.00000   0.00917   0.00917   2.06114
   R28        2.04661   0.00393   0.00000   0.01097   0.01097   2.05759
   R29        1.78982   0.01480   0.00000   0.02529   0.02529   1.81511
    A1        1.96485   0.00041   0.00000   0.00336   0.00335   1.96821
    A2        1.90843  -0.00010   0.00000  -0.00065  -0.00067   1.90777
    A3        1.90384  -0.00037   0.00000  -0.00228  -0.00228   1.90156
    A4        1.90668   0.00024   0.00000   0.00453   0.00453   1.91121
    A5        1.93513  -0.00001   0.00000  -0.00108  -0.00108   1.93405
    A6        1.84066  -0.00021   0.00000  -0.00439  -0.00439   1.83627
    A7        2.11510  -0.00065   0.00000  -0.00056  -0.00057   2.11453
    A8        2.02650   0.00019   0.00000  -0.00024  -0.00023   2.02627
    A9        2.14153   0.00045   0.00000   0.00078   0.00079   2.14232
   A10        2.17476  -0.00059   0.00000   0.00015   0.00013   2.17489
   A11        2.08012   0.00013   0.00000  -0.00109  -0.00108   2.07904
   A12        2.02822   0.00046   0.00000   0.00099   0.00100   2.02922
   A13        1.97201   0.00034   0.00000   0.00426   0.00425   1.97626
   A14        1.92132   0.00000   0.00000  -0.00031  -0.00029   1.92102
   A15        1.91602   0.00034   0.00000   0.00479   0.00479   1.92081
   A16        1.93619  -0.00018   0.00000  -0.00398  -0.00398   1.93221
   A17        1.86994  -0.00054   0.00000  -0.00313  -0.00315   1.86679
   A18        1.84317   0.00000   0.00000  -0.00199  -0.00200   1.84116
   A19        1.97360   0.00059   0.00000   0.00246   0.00245   1.97605
   A20        1.90685   0.00011   0.00000   0.00318   0.00319   1.91004
   A21        1.92315   0.00013   0.00000   0.00208   0.00208   1.92523
   A22        1.86096  -0.00048   0.00000  -0.00181  -0.00181   1.85914
   A23        1.93875  -0.00061   0.00000  -0.00822  -0.00822   1.93053
   A24        1.85549   0.00023   0.00000   0.00240   0.00238   1.85786
   A25        1.85697   0.00069   0.00000   0.00550   0.00541   1.86238
   A26        1.96464  -0.00054   0.00000  -0.00951  -0.00951   1.95513
   A27        1.83724  -0.00005   0.00000   0.00368   0.00364   1.84088
   A28        1.97284  -0.00084   0.00000  -0.00915  -0.00916   1.96368
   A29        1.90469   0.00049   0.00000   0.00840   0.00839   1.91308
   A30        1.92123   0.00034   0.00000   0.00246   0.00250   1.92373
   A31        1.93647   0.00025   0.00000   0.00119   0.00119   1.93766
   A32        1.94958  -0.00020   0.00000  -0.00054  -0.00054   1.94903
   A33        1.93591   0.00031   0.00000   0.00164   0.00164   1.93755
   A34        1.88766   0.00007   0.00000   0.00099   0.00099   1.88865
   A35        1.86504  -0.00052   0.00000  -0.00456  -0.00456   1.86049
   A36        1.88611   0.00006   0.00000   0.00110   0.00110   1.88721
   A37        1.96972  -0.00119   0.00000  -0.00886  -0.00884   1.96087
   A38        1.96580  -0.00061   0.00000  -0.00578  -0.00575   1.96004
   A39        1.87269   0.00030   0.00000  -0.00290  -0.00288   1.86981
   A40        1.89832   0.00156   0.00000   0.00922   0.00917   1.90749
   A41        1.87405   0.00016   0.00000   0.00621   0.00616   1.88021
   A42        1.87876  -0.00018   0.00000   0.00298   0.00292   1.88169
   A43        1.97101  -0.00004   0.00000   0.00003   0.00003   1.97103
   A44        1.91904   0.00017   0.00000   0.00205   0.00204   1.92108
   A45        1.94985  -0.00057   0.00000  -0.00480  -0.00481   1.94505
   A46        1.86943   0.00018   0.00000   0.00346   0.00345   1.87288
   A47        1.88650   0.00017   0.00000  -0.00068  -0.00069   1.88581
   A48        1.86311   0.00013   0.00000   0.00026   0.00027   1.86338
   A49        1.93854  -0.00086   0.00000  -0.00663  -0.00664   1.93190
   A50        1.91970   0.00021   0.00000   0.00265   0.00265   1.92235
   A51        1.96305   0.00004   0.00000   0.00017   0.00016   1.96321
   A52        1.88679   0.00034   0.00000   0.00216   0.00216   1.88895
   A53        1.88538   0.00019   0.00000  -0.00128  -0.00129   1.88409
   A54        1.86739   0.00014   0.00000   0.00333   0.00333   1.87072
   A55        1.91404  -0.00168   0.00000  -0.01039  -0.01039   1.90364
    D1       -0.21081  -0.00004   0.00000  -0.00134  -0.00133  -0.21214
    D2        2.94137   0.00010   0.00000   0.00022   0.00022   2.94159
    D3       -2.33350  -0.00055   0.00000  -0.00889  -0.00889  -2.34239
    D4        0.81868  -0.00041   0.00000  -0.00734  -0.00733   0.81134
    D5        1.94497  -0.00004   0.00000  -0.00207  -0.00207   1.94290
    D6       -1.18604   0.00010   0.00000  -0.00051  -0.00052  -1.18656
    D7        0.76792  -0.00032   0.00000  -0.00546  -0.00546   0.76246
    D8       -1.30155  -0.00016   0.00000  -0.00689  -0.00690  -1.30845
    D9        2.94921  -0.00058   0.00000  -0.01285  -0.01286   2.93635
   D10        2.89161   0.00000   0.00000  -0.00085  -0.00084   2.89077
   D11        0.82214   0.00016   0.00000  -0.00228  -0.00227   0.81986
   D12       -1.21029  -0.00027   0.00000  -0.00824  -0.00824  -1.21853
   D13       -1.37035  -0.00012   0.00000  -0.00411  -0.00411  -1.37446
   D14        2.84336   0.00003   0.00000  -0.00554  -0.00554   2.83782
   D15        0.81094  -0.00039   0.00000  -0.01150  -0.01150   0.79943
   D16        0.00686   0.00005   0.00000  -0.00180  -0.00180   0.00506
   D17        3.13359   0.00023   0.00000   0.00342   0.00342   3.13701
   D18        3.13715  -0.00009   0.00000  -0.00346  -0.00346   3.13370
   D19       -0.01930   0.00008   0.00000   0.00176   0.00175  -0.01754
   D20       -1.06804   0.00006   0.00000   0.00092   0.00093  -1.06711
   D21        3.10743  -0.00006   0.00000  -0.00078  -0.00078   3.10665
   D22        1.00208  -0.00022   0.00000  -0.00295  -0.00295   0.99913
   D23        2.08432   0.00021   0.00000   0.00251   0.00251   2.08683
   D24       -0.02340   0.00008   0.00000   0.00080   0.00080  -0.02260
   D25       -2.12875  -0.00008   0.00000  -0.00136  -0.00136  -2.13011
   D26       -0.34971   0.00036   0.00000   0.01050   0.01049  -0.33922
   D27       -2.52503   0.00034   0.00000   0.01282   0.01281  -2.51222
   D28        1.73635   0.00014   0.00000   0.01262   0.01263   1.74897
   D29        2.80634   0.00019   0.00000   0.00544   0.00543   2.81177
   D30        0.63102   0.00017   0.00000   0.00775   0.00775   0.63877
   D31       -1.39079  -0.00003   0.00000   0.00756   0.00756  -1.38323
   D32        0.83925  -0.00059   0.00000  -0.01492  -0.01494   0.82431
   D33       -1.33074   0.00033   0.00000  -0.00119  -0.00119  -1.33193
   D34        2.85945   0.00024   0.00000  -0.00126  -0.00126   2.85819
   D35        3.00645  -0.00047   0.00000  -0.01520  -0.01523   2.99123
   D36        0.83646   0.00045   0.00000  -0.00147  -0.00147   0.83498
   D37       -1.25654   0.00036   0.00000  -0.00154  -0.00155  -1.25808
   D38       -1.27315  -0.00086   0.00000  -0.02139  -0.02140  -1.29455
   D39        2.84004   0.00005   0.00000  -0.00766  -0.00765   2.83239
   D40        0.74704  -0.00003   0.00000  -0.00773  -0.00772   0.73933
   D41       -1.07712   0.00038   0.00000   0.01420   0.01421  -1.06290
   D42        1.08781  -0.00035   0.00000   0.00023   0.00023   1.08803
   D43       -3.05135  -0.00013   0.00000   0.00324   0.00322  -3.04813
   D44        1.01880   0.00055   0.00000   0.01839   0.01841   1.03721
   D45       -3.09946  -0.00018   0.00000   0.00443   0.00442  -3.09504
   D46       -0.95543   0.00003   0.00000   0.00744   0.00741  -0.94802
   D47        3.03326   0.00024   0.00000   0.01599   0.01601   3.04927
   D48       -1.08500  -0.00049   0.00000   0.00202   0.00202  -1.08298
   D49        1.05903  -0.00028   0.00000   0.00503   0.00501   1.06404
   D50        3.07433  -0.00024   0.00000   0.01241   0.01243   3.08676
   D51       -1.05094   0.00044   0.00000   0.01329   0.01333  -1.03760
   D52        1.01346   0.00005   0.00000   0.01176   0.01178   1.02524
   D53        0.96966  -0.00013   0.00000   0.01895   0.01891   0.98857
   D54        3.12758   0.00055   0.00000   0.01983   0.01982  -3.13579
   D55       -1.09121   0.00016   0.00000   0.01830   0.01826  -1.07294
   D56       -1.16516  -0.00042   0.00000   0.01269   0.01268  -1.15248
   D57        0.99276   0.00026   0.00000   0.01357   0.01358   1.00635
   D58        3.05716  -0.00013   0.00000   0.01204   0.01203   3.06919
   D59       -2.98746  -0.00060   0.00000  -0.01270  -0.01270  -3.00016
   D60       -1.00035   0.00039   0.00000  -0.00074  -0.00075  -1.00110
   D61        1.17424  -0.00010   0.00000  -0.00487  -0.00486   1.16938
   D62       -1.04299   0.00010   0.00000   0.00146   0.00145  -1.04153
   D63       -3.12982  -0.00022   0.00000  -0.00437  -0.00437  -3.13419
   D64        1.08805  -0.00014   0.00000  -0.00301  -0.00301   1.08504
   D65        3.04544   0.00056   0.00000   0.00834   0.00837   3.05381
   D66        0.95860   0.00024   0.00000   0.00252   0.00254   0.96114
   D67       -1.10671   0.00032   0.00000   0.00388   0.00390  -1.10280
   D68        1.01709  -0.00012   0.00000  -0.00324  -0.00326   1.01383
   D69       -1.06975  -0.00044   0.00000  -0.00906  -0.00908  -1.07883
   D70       -3.13506  -0.00035   0.00000  -0.00770  -0.00772   3.14040
   D71       -0.97412   0.00034   0.00000   0.00114   0.00115  -0.97298
   D72       -3.06222   0.00033   0.00000   0.00096   0.00097  -3.06125
   D73        1.14144  -0.00001   0.00000  -0.00514  -0.00513   1.13631
   D74        1.22291  -0.00046   0.00000  -0.00754  -0.00756   1.21535
   D75       -0.86518  -0.00047   0.00000  -0.00772  -0.00774  -0.87292
   D76       -2.94471  -0.00081   0.00000  -0.01383  -0.01384  -2.95855
   D77       -3.03496   0.00044   0.00000   0.00616   0.00616  -3.02879
   D78        1.16014   0.00044   0.00000   0.00598   0.00599   1.16612
   D79       -0.91939   0.00010   0.00000  -0.00012  -0.00011  -0.91950
         Item               Value     Threshold  Converged?
 Maximum Force            0.014804     0.000450     NO 
 RMS     Force            0.002172     0.000300     NO 
 Maximum Displacement     0.063960     0.001800     NO 
 RMS     Displacement     0.014930     0.001200     NO 
 Predicted change in Energy=-9.752788D-04
 GradGradGradGradGradGradGradGradGradGradGradGradGradGradGradGradGradGrad

                          Input orientation:                          
 ---------------------------------------------------------------------
 Center     Atomic      Atomic             Coordinates (Angstroms)
 Number     Number       Type             X           Y           Z
 ---------------------------------------------------------------------
      1          6           0       -0.431123    3.264457    1.866863
      2          6           0        0.990267    3.742366    1.682325
      3          6           0        1.879601    3.015082    1.009345
      4          6           0        1.586866    1.681515    0.368971
      5          6           0       -0.775249    2.068137    0.973451
      6          1           0       -1.119806    4.087832    1.655994
      7          1           0       -0.590080    3.020057    2.923067
      8          6           0        0.333118    0.998794    0.936757
      9          1           0       -0.911296    2.409644   -0.054494
     10          1           0       -1.725416    1.626521    1.280835
     11          1           0        2.453784    1.027464    0.454538
     12          1           0        1.422054    1.809158   -0.704814
     13          1           0        2.890569    3.392054    0.893094
     14          6           0        1.330977    5.064470    2.313415
     15          1           0        0.719520    5.868157    1.894470
     16          1           0        2.378998    5.322140    2.166439
     17          1           0        1.132026    5.048625    3.388569
     18          6           0        0.596241    0.363917    2.335535
     19          6           0       -0.672620   -0.254040    2.945080
     20          1           0       -1.473951    0.471106    3.082760
     21          1           0       -0.448665   -0.679546    3.923377
     22          1           0       -1.056453   -1.069600    2.326971
     23          6           0        1.707398   -0.695394    2.295053
     24          1           0        0.925325    1.168201    2.997160
     25          1           0        1.477943   -1.466077    1.559781
     26          1           0        1.806545   -1.173185    3.270519
     27          1           0        2.678323   -0.271024    2.044529
     28          8           0       -0.010350   -0.015993   -0.009775
[...]
 04608,0.00000799,0.00006446,-0.00001182,0.00001068,-0.00000147,-0.0000
 1982,-0.00002634,0.00000367,0.00001280,0.00005550,0.00002601,-0.123220
 44,0.04400859,0.00588586,-0.03221020,0.02085082,0.00616611,-0.00445913
 ,-0.00172639,0.00176663,0.00125972,0.00107219,-0.00138699,0.00159059,0
 .00081118,-0.00066026,0.52028927,0.00008462,0.00019532,-0.00006264,0.0
 0012664,0.00000184,-0.00004671,-0.00007479,-0.00013982,-0.00021289,0.0
 0019991,-0.00033365,0.00049183,-0.00057744,-0.00003578,0.00140505,-0.0
 0000426,-0.00002347,0.00005263,-0.00017209,-0.00003846,0.00007454,0.01
 113088,-0.01146529,0.00683093,0.00040475,-0.00022769,-0.00010649,0.000
 13455,0.00001032,0.00011651,0.00045411,-0.00111851,0.00130479,0.000211
 76,0.00021302,-0.00031382,-0.00000690,-0.00002828,0.00005146,-0.000033
 89,-0.00000087,0.00002109,-0.00000088,0.00001519,0.00000241,-0.0000114
 6,-0.00001453,0.00000088,0.00000590,0.00002531,0.00001677,0.04675137,-
 0.12479460,-0.00645183,-0.00574539,0.00940463,0.00007755,-0.00406420,-
 0.00049265,0.00199935,-0.00094110,0.00028900,0.00021600,-0.00064828,0.
 00053214,0.00016564,0.06066408,0.50563350,0.00009638,-0.00053457,-0.00
 057316,0.00005061,0.00013914,0.00032634,-0.00016276,-0.00027086,-0.000
 17565,-0.00021239,0.00046299,-0.00025709,0.00022019,0.00149223,-0.0063
 2726,0.00003045,0.00003001,0.00028221,-0.00011586,0.00012928,0.0004601
 1,-0.02164633,0.02300108,0.00153159,-0.00152551,0.00145003,-0.00011680
 ,-0.00012001,-0.00023338,0.00007109,-0.00092380,0.00172947,-0.00092811
 ,-0.00026833,0.00024350,0.00001101,0.00003571,0.00012130,-0.00001579,0
 .00004272,0.00001259,0.00002784,-0.00000438,-0.00000809,0.00000149,0.0
 0002027,0.00002618,0.00000157,-0.00001062,0.00005362,0.00003052,0.0024
 2917,-0.00418085,-0.07914427,0.01026513,-0.00796971,-0.00108987,0.0022
 3782,0.00134714,-0.00084596,0.00113359,-0.00075552,-0.00009494,-0.0009
 2002,0.00029304,0.00054141,-0.00126638,-0.00314969,0.57094872,-0.00017
 571,0.00045349,-0.00079660,0.00053711,-0.00033226,-0.00000093,-0.00009
 561,-0.00014385,0.00012828,0.00018647,-0.00005539,0.00027512,-0.000212
 57,-0.00009730,-0.00001562,-0.00007019,-0.00006824,0.00029750,-0.00054
 557,0.00043578,0.00040065,-0.00236871,-0.00443929,-0.00303894,0.000070
 75,0.00005610,0.00009230,0.00002718,0.00002050,-0.00007958,0.00000997,
 0.00010041,0.00006654,-0.00001516,0.00006554,-0.00007368,-0.00004535,0
 .00001733,0.00005056,-0.00006898,0.00001613,0.00000479,-0.00000379,0.0
 0003184,0.00000321,-0.00002947,-0.00002759,0.00001028,0.00002416,0.000
 05139,0.00003134,-0.07027634,-0.05644049,-0.04875951,-0.01199430,-0.02
 207017,-0.01607352,0.00074734,0.00072396,-0.00059700,0.00122777,0.0004
 9474,0.00014979,-0.00434878,-0.00234523,0.00248891,0.00544056,0.020272
 88,0.01627870,0.08264840,0.00064530,-0.00141459,0.00066472,0.00043800,
 -0.00077968,0.00057639,0.00002223,-0.00028005,0.00044371,-0.00028524,0
 .00011423,-0.00065351,0.00008336,0.00016567,-0.00093173,-0.00007284,-0
 .00014753,0.00015436,0.00026471,-0.00045097,0.00026278,0.00352031,0.00
 903021,0.00547413,-0.00018546,0.00012252,-0.00004880,0.00005222,-0.000
 05054,0.00005801,-0.00007530,-0.00010523,-0.00003807,0.00015922,0.0000
 7288,-0.00016439,0.00000846,0.00003381,-0.00005100,0.00002180,-0.00000
 094,-0.00002955,-0.00001597,0.00001899,-0.00000891,0.00000290,0.000013
 20,-0.00000932,-0.00003432,0.00002595,-0.00002439,-0.05687766,-0.18098
 851,-0.11185848,-0.00574468,-0.01005396,-0.00687189,-0.00009424,0.0007
 8528,0.00024885,0.00037601,-0.00007468,0.00013319,-0.00191328,0.000122
 25,0.00152684,-0.00440911,-0.01867301,-0.01471738,0.06016071,0.2025329
 9,-0.00040789,0.00012741,-0.00026414,-0.00008682,0.00053005,0.00066807
 ,0.00060140,-0.00046301,-0.00008557,0.00005879,-0.00041766,0.00069699,
 -0.00007685,-0.00015890,0.00034180,0.00011315,-0.00001703,0.00033340,-
 0.00013581,0.00003092,0.00046374,-0.00846880,-0.02298585,-0.01649882,0
 .00011357,-0.00000753,0.00005274,0.00006748,0.00009825,-0.00004873,0.0
 0010536,0.00010500,-0.00020233,-0.00011244,-0.00009092,0.00019488,-0.0
 0001092,0.00009513,0.00006765,0.00007150,0.00008559,0.00012173,-0.0000
 0123,-0.00008241,-0.00003199,-0.00002108,-0.00000864,0.00000154,-0.000
 00887,0.00001276,-0.00006144,-0.04840491,-0.11013543,-0.14280961,0.005
 61213,0.01103947,0.00809622,-0.00074477,-0.00042435,0.00043256,-0.0006
 7828,-0.00017105,0.00084953,0.00292496,0.00172607,-0.00037531,0.000155
 83,-0.00072157,-0.00044979,0.05028239,0.12054157,0.15572911,0.00001846
 ,0.00000713,0.00012336,-0.00002844,0.00000223,-0.00001760,-0.00013367,
 0.00010069,0.00005412,0.00005165,-0.00000335,0.00000456,-0.00007120,-0
 .00014021,0.00017678,0.00000058,-0.00001530,-0.00008492,0.00007228,-0.
 00001127,-0.00012450,0.00132381,-0.00003291,0.00033693,0.00001770,-0.0
 0002291,-0.00001142,-0.00002503,0.00001877,0.00001636,-0.00004366,-0.0
 0002570,-0.00017780,0.00012497,-0.00003999,-0.00000525,0.00001147,0.00
 000485,-0.00003101,-0.00000891,-0.00000492,0.00000079,0.00000645,-0.00
 000030,0.00000231,0.00000311,0.00000544,-0.00000546,-0.00000447,-0.000
 00797,-0.00000349,0.00571510,0.01686338,0.01774843,0.00170058,0.000400
 55,0.00028823,0.00006325,-0.00023067,-0.00031933,-0.00009034,0.0000001
 2,-0.00001234,-0.00036999,-0.00032995,-0.00017292,-0.06098185,-0.04246
 407,-0.03929630,-0.00311906,0.00358419,0.00002264,0.06425410,-0.000041
 23,0.00000629,-0.00011673,0.00007731,0.00009999,0.00012471,-0.00001086
 ,-0.00005729,-0.00006902,0.00014262,0.00001383,0.00039096,0.00000053,0
 .00012261,0.00010943,0.00000097,0.00000109,0.00010667,-0.00009308,0.00
 007586,0.00015218,-0.00117554,-0.00107655,-0.00301779,0.00004505,-0.00
 006050,0.00009260,0.00000655,0.00001027,-0.00002815,-0.00015561,-0.000
 09849,-0.00021055,-0.00000916,-0.00014199,0.00010380,0.00000953,0.0000
 5851,-0.00000115,0.00000077,0.00001402,0.00002222,0.00000153,-0.000008
 19,0.00000276,-0.00000312,0.00000184,-0.00000176,-0.00000582,0.0000282
 0,0.00000948,-0.00454573,-0.01946988,-0.01580133,-0.00093688,0.0005050
 1,0.00056581,0.00011089,0.00013402,0.00025222,0.00009317,0.00005320,0.
 00005124,0.00063129,0.00066132,-0.00013284,-0.04155425,-0.17036073,-0.
 12309263,0.00424703,-0.00235154,0.00013691,0.04263373,0.18684853,0.000
 06723,-0.00003994,0.00008604,0.00000577,-0.00000182,0.00000994,0.00003
 142,-0.00001659,0.00003752,0.00002956,-0.00004941,-0.00011698,-0.00014
 503,-0.00019985,-0.00000754,-0.00000845,-0.00006379,-0.00002586,-0.000
 00926,0.00003007,-0.00002429,0.00022674,0.00034665,-0.00046030,0.00003
 732,-0.00001200,0.00003664,0.00001252,0.00000965,0.00000354,0.00011213
 ,-0.00004910,0.00012755,0.00000734,0.00002620,0.00002586,-0.00001785,-
 0.00003614,-0.00000522,0.00000134,0.00000932,-0.00000857,0.00000298,-0
 .00000868,0.00000187,-0.00000925,-0.00000355,0.00000063,-0.00000079,-0
 .00000279,-0.00000721,0.00065440,-0.00118163,0.00031071,-0.00020879,-0
 .00008891,-0.00014378,0.00013728,0.00022507,0.00016594,-0.00005912,-0.
 00012275,-0.00005468,0.00048753,0.00000490,0.00008583,-0.03901003,-0.1
 2536662,-0.17147540,0.00012745,0.00060286,0.00070193,0.04386837,0.1381
 3202,0.18445206,-0.00002702,-0.00010437,-0.00009964,-0.00012478,-0.000
 07091,0.00002036,0.00023467,0.00004727,0.00006116,-0.00065040,-0.00016
 253,0.00056989,0.00018891,0.00038303,-0.00156283,0.00002288,0.00003796
 ,0.00003963,0.00004897,0.00001482,0.00005196,-0.00364075,0.00275392,0.
 00192632,-0.00039583,0.00041639,-0.00007444,-0.00001277,-0.00006404,-0
 .00000695,0.00055900,-0.00020291,-0.00021637,0.00021596,-0.00013718,-0
 .00002562,0.00000726,0.00003599,-0.00000123,0.00004880,0.00000914,-0.0
 0004209,-0.00000027,-0.00001365,-0.00000179,0.00000616,0.00001084,0.00
 000563,-0.00000412,-0.00001994,-0.00001324,-0.00395800,0.01029980,-0.0
 2155952,0.00072691,0.00051502,-0.00156690,0.00038276,-0.00019272,0.000
 11210,-0.00061044,0.00014663,0.00061118,-0.00012649,-0.00004623,-0.000
 02817,-0.04725644,0.00665485,-0.01550768,0.00071956,-0.00051865,0.0004
 1739,-0.00145970,0.00366419,-0.00662007,0.05218868,-0.00001673,0.00009
 913,0.00013670,-0.00000553,-0.00001049,-0.00002710,0.00004440,0.000150
 27,0.00007426,0.00043598,0.00022510,-0.00008330,-0.00008783,-0.0002037
 7,0.00155064,0.00000365,-0.00003552,-0.00004102,-0.00000318,0.00000273
 ,-0.00007295,0.00260066,-0.00350671,-0.00288980,0.00043220,-0.00036006
 ,0.00004051,0.00009784,0.00003322,-0.00004186,0.00012940,-0.00004158,-
 0.00019881,0.00004872,-0.00013159,0.00005825,-0.00003286,-0.00005119,-
 0.00000624,0.00000231,0.00001217,0.00000859,0.00000183,-0.00001881,-0.
 00000954,-0.00001807,-0.00001296,0.00000393,0.00000860,-0.00002768,-0.
 00003251,0.00258242,-0.01155446,0.02179004,-0.00146923,0.00082928,0.00
 069217,-0.00038211,-0.00003892,-0.00028638,0.00039247,0.00053003,-0.00
 055659,0.00004897,0.00006361,-0.00016835,0.00763936,-0.09736044,0.1020
 8814,-0.00082724,0.00027123,-0.00009459,-0.00062890,0.01176444,-0.0201
 1930,-0.01135558,0.10477542,-0.00001003,0.00000156,-0.00000683,0.00007
 500,0.00003992,-0.00000052,-0.00016268,-0.00004708,-0.00007980,0.00025
 711,-0.00020376,0.00014682,0.00011468,-0.00009332,0.00000456,-0.000018
 34,0.00003893,0.00000099,0.00000604,0.00000520,0.00002195,0.00065669,-
 0.00088843,0.00038373,-0.00006588,-0.00003736,0.00009056,-0.00012005,0
 .00001352,0.00001403,-0.00031350,0.00005118,-0.00000455,-0.00003227,0.
 00003752,-0.00001714,0.00002937,0.00004217,0.00001016,-0.00002714,-0.0
 0001777,0.00001478,-0.00000444,0.00002713,0.00000425,0.00001437,0.0000
 0439,-0.00000463,-0.00000134,0.00002455,0.00003043,0.00076968,-0.00115
 115,0.00106133,0.00086522,-0.00068863,0.00027434,0.00000213,-0.0002153
 4,0.00041366,-0.00015659,-0.00026629,0.00067007,-0.00006760,0.00010750
 ,-0.00012047,-0.01737417,0.10274607,-0.25436777,-0.00033763,0.00047902
 ,0.00047669,-0.00067017,0.01028919,-0.01910383,0.01675534,-0.11366990,
 0.27603097,-0.00004813,-0.00005612,0.00002933,-0.00026405,-0.00010529,
 0.00001767,0.00042321,0.00029466,0.00021453,-0.00072589,-0.00009284,0.
 00062722,0.00009089,0.00008074,-0.00013136,0.00004697,0.00003354,-0.00
 000471,0.00005613,-0.00001382,-0.00009552,-0.00054848,-0.00108222,0.00
 108797,-0.00003837,0.00011207,-0.00009716,0.00021390,-0.00005360,0.000
 04494,0.00155240,-0.00042840,-0.00049287,0.00047752,-0.00034949,0.0000
 3861,0.00000497,0.00002005,-0.00002842,0.00010309,0.00002174,-0.000062
 54,0.00000704,-0.00004803,-0.00000129,0.00001149,0.00002419,0.00000137
 ,-0.00002134,-0.00004969,-0.00004998,-0.01888933,-0.01039551,0.0050777
 4,-0.00259380,0.00502309,-0.00026120,-0.00135721,-0.00063412,0.0006958
 7,0.00031423,-0.00000570,-0.00001100,0.00030633,0.00002482,-0.00017703
 ,-0.25617854,-0.09246964,0.05020029,0.00113179,0.00005563,0.00022151,-
 0.00593998,-0.00279053,0.00133230,0.00278137,0.00079611,0.00017299,0.2
 7885095,0.00001240,0.00002729,0.00000702,0.00008105,-0.00008705,-0.000
 16074,-0.00005257,0.00007011,-0.00001661,-0.00009116,-0.00083187,0.001
 07358,-0.00003582,0.00002599,-0.00019024,-0.00002167,0.00000211,-0.000
 00240,0.00000135,-0.00000359,0.00001474,-0.00042459,0.00067011,0.00002
 993,-0.00006898,0.00001685,0.00001407,-0.00008278,0.00001323,-0.000030
 16,0.00054251,-0.00120638,0.00175632,-0.00000249,0.00003358,-0.0000331
 6,-0.00001929,-0.00003340,0.00002281,-0.00002244,-0.00001249,0.0000029
 8,-0.00000301,0.00002177,0.00000121,0.00000494,-0.00000241,0.00000125,
 0.00000945,0.00000835,0.00001734,0.02077815,0.01091956,-0.00613788,0.0
 0311816,-0.00316541,0.00041256,0.00137759,0.00059354,-0.00055446,-0.00
 010527,-0.00014668,-0.00018303,0.00027910,0.00007753,0.00017882,-0.094
 52267,-0.08925931,0.02202767,-0.00076603,0.00136254,-0.00019105,-0.019
 33014,-0.00917900,0.00663783,-0.01238121,-0.00658528,0.00241362,0.1016
 3093,0.09648172,0.00002264,0.00002819,0.00001405,-0.00004378,-0.000027
 64,-0.00007685,0.00010445,0.00007068,0.00002345,-0.00048361,0.00103430
 ,-0.00061752,0.00014339,0.00012663,0.00001414,0.00000676,-0.00000689,-
 0.00000033,0.00002413,-0.00000797,0.00000657,-0.00033715,-0.00051631,0
 .00007139,-0.00000542,-0.00002062,0.00000476,0.00003148,-0.00004096,-0
 .00002549,-0.00032293,0.00174834,-0.00135251,-0.00000678,-0.00004878,0
 .00002251,-0.00002193,-0.00003280,0.00002238,0.00001478,0.00000382,-0.
 00002150,-0.00000328,-0.00000811,-0.00000677,-0.00001121,-0.00001037,0
 .00000977,0.00001194,-0.00002501,-0.00001634,0.00082468,-0.00011646,-0
 .00190498,0.00072006,-0.00064283,-0.00003630,0.00043556,0.00010146,0.0
 0047065,-0.00021613,-0.00024240,0.00052083,0.00024214,0.00020190,0.000
 01114,0.05086264,0.02192714,-0.05890272,0.00017956,0.00007332,0.000108
 19,-0.02103585,-0.00876843,0.00615682,0.02670531,0.01188484,-0.0060171
 0,-0.05799417,-0.02697617,0.06177953,-0.00275725,0.00217456,-0.0011074
 1,-0.00149284,0.00031445,0.00062691,-0.00567222,-0.00044905,0.00322471
 ,-0.01282696,-0.03454808,-0.02326561,0.00653274,0.01759597,0.01598525,
 0.00040257,0.00108983,0.00078708,0.00018812,0.00025274,0.00038261,-0.0
 8807861,-0.03373371,-0.01720628,0.00105011,-0.00133345,0.00119269,0.00
 290203,0.00015319,-0.00032789,0.00160013,0.00073093,-0.00073673,0.0013
 5677,0.00012424,-0.00164410,-0.00028608,-0.00211924,-0.00078267,0.0007
 3052,0.00001675,-0.00040664,0.00001008,-0.00028930,-0.00002047,0.00014
 792,0.00021769,0.00007732,-0.00005445,-0.00020037,-0.00020186,-0.00194
 812,-0.00748660,-0.01007227,-0.00034748,-0.00053002,0.00035646,0.00024
 527,-0.00000778,-0.00022336,0.00029917,0.00048741,0.00032021,0.0007993
 7,0.00096241,0.00031874,0.00030013,0.00018130,-0.00073859,0.00045954,0
 .00085491,-0.00226460,-0.00059080,-0.00065604,-0.00094565,0.00003880,-
 0.00046618,-0.00043072,0.00001909,-0.00002877,-0.00002918,0.49321940,0
 .00800170,-0.00284856,0.00191568,0.00063761,0.00098797,0.00020593,-0.0
 0439679,0.00016069,0.00151478,-0.01347723,-0.02403309,-0.01522283,-0.0
 0980236,-0.03573615,-0.03027988,-0.00053196,-0.00237635,-0.00178757,0.
 00000345,-0.00045255,-0.00073809,-0.00732598,-0.12309866,-0.06399790,-
 0.00252969,0.00246402,-0.00039224,-0.00010178,0.00293727,0.00007986,-0
 .00047122,0.00093053,-0.00006286,0.00139546,0.00029761,-0.00158399,-0.
 00037764,-0.00129780,-0.00051513,-0.00027335,0.00000779,0.00009933,0.0
 0008292,-0.00001038,-0.00003265,-0.00018769,-0.00009950,-0.00000484,0.
 00008645,-0.00005461,-0.00006318,-0.00244064,0.00111157,-0.00579649,-0
 .00111628,-0.00170083,0.00024067,-0.00031461,0.00036251,0.00054561,0.0
 0019639,0.00097960,0.00052488,0.00173991,0.00173028,0.00028008,0.00121
 826,-0.00204642,-0.00026062,0.00050711,0.00091094,0.00118203,-0.000592
 87,0.00242669,0.00152102,0.00022881,0.00125005,0.00093695,0.00053069,0
 .00032518,0.00044833,0.21358422,0.26819084,0.00343028,-0.00138952,0.00
 250075,0.00046730,0.00043314,0.00031205,0.00130647,0.00050719,0.000038
 29,-0.00068874,0.00205564,0.00523022,-0.00361985,-0.01593690,-0.010520
 09,-0.00036993,-0.00132892,-0.00078430,-0.00016473,0.00047215,0.000388
 11,0.01270664,-0.04533091,-0.12737344,0.00027109,-0.00046539,0.0022756
 3,-0.00088932,0.00162663,-0.00038155,-0.00013877,0.00038549,0.00017346
 ,0.00011507,0.00043862,0.00187604,0.00003032,0.00038229,0.00000125,-0.
 00023426,0.00007684,0.00004396,0.00005039,0.00005090,0.00001858,-0.000
 07827,-0.00004980,-0.00003473,0.00001300,0.00009532,0.00006683,-0.0139
 2394,-0.03217252,-0.03499870,-0.00098658,-0.00061760,0.00159902,0.0002
 9526,-0.00027113,-0.00043226,-0.00009713,-0.00010432,0.00017543,-0.000
 04162,-0.00001540,-0.00038033,0.00103109,-0.00129029,0.00089064,-0.001
 58218,0.00399722,-0.00856179,-0.00042386,0.00058967,-0.00082881,0.0001
 0166,-0.00007945,0.00006373,-0.00063106,-0.00011838,-0.00032243,-0.107
 52129,0.06512128,0.23734918,-0.00088924,0.00030491,0.00003239,0.000139
 72,-0.00025343,-0.00029653,-0.00064389,0.00050013,0.00074216,0.0008905
 9,-0.00225371,-0.00274889,0.00364543,0.00203838,0.00036442,0.00006895,
 0.00021666,0.00009363,0.00006212,-0.00006083,-0.00006578,-0.01174038,-
 0.00358056,0.00457847,0.00001837,0.00002852,-0.00012172,-0.00006380,-0
 .00086113,0.00050092,0.00016172,0.00021662,0.00005629,0.00026531,0.000
 25757,-0.00024946,0.00002031,-0.00027918,-0.00005431,0.00000980,0.0000
 4469,-0.00003537,0.00000271,-0.00001714,-0.00000636,-0.00001371,0.0000
 0349,0.00001190,0.00000628,-0.00003989,-0.00003082,-0.00036544,0.00016
 475,0.00036772,0.00019915,-0.00010258,0.00018571,-0.00009596,0.0002749
 2,0.00039377,-0.00004177,0.00014727,0.00014068,0.00058643,0.00009773,0
 .00041528,-0.00027081,-0.00006321,-0.00032210,0.00013899,-0.00002319,0
 .00065518,-0.00049644,0.00031270,-0.00010742,0.00009632,0.00002853,0.0
 0007394,0.00021374,0.00012324,0.00018191,-0.39624698,-0.18427290,0.111
 57297,0.40434249,0.00008555,0.00031348,-0.00065698,-0.00051378,0.00026
 264,0.00038499,-0.00168829,0.00026599,0.00068629,-0.00059202,-0.004709
 59,-0.00442291,-0.00099860,0.00084150,0.00195009,0.00006411,0.00030441
 ,0.00020137,0.00008325,0.00010385,0.00017909,-0.02928455,-0.01530231,0
 .00859775,0.00002677,-0.00057648,0.00016378,0.00152470,-0.00040256,-0.
 00084308,-0.00014099,0.00002783,-0.00011015,0.00027860,-0.00000048,-0.
 00032451,0.00004136,-0.00051553,-0.00020310,0.00032101,-0.00000881,-0.
 00010538,-0.00001080,-0.00006698,-0.00000787,0.00007897,0.00010426,0.0
 0003259,-0.00002215,-0.00003583,-0.00003667,0.00025281,0.00106717,0.00
 000770,0.00058293,0.00104863,0.00072803,0.00009726,-0.00027138,-0.0005
 8860,0.00011556,-0.00028505,-0.00007046,-0.00060351,-0.00043181,0.0009
 1834,-0.00005035,0.00009322,0.00052589,-0.00004185,-0.00021145,0.00025
 883,0.00026037,-0.00002156,-0.00018272,0.00005128,-0.00006722,0.000020
 57,-0.00007327,-0.00013658,-0.00015720,-0.15689199,-0.09131864,0.02293
 811,0.18704763,0.10992928,0.00018389,0.00004632,-0.00018022,-0.0000853
 6,0.00017352,0.00002342,-0.00085488,-0.00038399,0.00077759,-0.00029357
 ,-0.00223471,-0.00293271,-0.00081528,-0.00044228,0.00069067,0.00000206
 ,0.00002037,-0.00004310,-0.00000133,-0.00011983,-0.00015127,-0.0272981
 4,-0.01387132,0.00506971,0.00025390,0.00055946,-0.00029348,0.00085234,
 -0.00016363,0.00010065,0.00000160,0.00004478,-0.00004833,0.00012484,-0
 .00021286,0.00046135,-0.00001941,-0.00025398,-0.00008013,0.00000764,-0
 .00000632,-0.00004878,-0.00000781,0.00001543,0.00000435,0.00002076,0.0
 0000915,0.00000718,0.00000835,-0.00002390,-0.00001357,-0.00196695,-0.0
 0099130,-0.00026380,-0.00030990,-0.00197967,-0.00093990,-0.00003803,0.
 00021306,-0.00001857,0.00024318,0.00067070,0.00074198,0.00122365,0.002
 16002,-0.00117017,-0.00001799,0.00022190,-0.00035998,0.00048780,0.0001
 7042,0.00005275,-0.00025066,0.00010852,0.00005958,-0.00005143,0.000049
 58,0.00000959,0.00027598,-0.00001746,0.00006469,0.14465336,0.04612183,
 -0.06838472,-0.11632860,-0.02988378,0.06686522\\-0.00001617,0.00001826
 ,0.00002359,0.00000407,-0.00001001,-0.00001384,-0.00000219,0.00002364,
 0.00001231,-0.00001043,-0.00003036,-0.00001903,0.00000037,-0.00003471,
 -0.00001918,-0.00000117,-0.00000561,-0.00000284,-0.00000231,-0.0000055
 0,-0.00000950,0.00000680,0.00004709,0.00004607,-0.00000012,0.00000314,
 0.00000392,0.00000208,-0.00000296,0.00000163,0.00000469,0.00000924,0.0
 0000658,0.00000428,0.00000486,0.00000617,-0.00000308,0.00000235,-0.000
 00393,-0.00000891,0.00001833,0.00000822,-0.00000801,-0.00000356,-0.000
 00176,-0.00000713,0.00000277,-0.00000087,-0.00000711,-0.00000180,-0.00
 000270,0.00000144,0.00000733,-0.00002159,-0.00000026,-0.00001118,0.000
 00176,-0.00000023,-0.00000183,-0.00000107,0.00000533,-0.00000070,0.000
 00149,0.00000640,-0.00000007,-0.00000003,0.00000982,-0.00000541,-0.000
 00436,0.00000352,-0.00000469,0.00000448,0.00000721,0.00000481,0.000004
 82,0.00000515,0.00000507,0.00000465,0.00000386,0.00000493,0.00000144,-
 0.00001702,-0.00004144,-0.00001908,0.00001913,0.00000799,-0.00000734\\
 \@


 COLLEGE PROFESSOR: SOMEONE WHO TALKS IN OTHER PEOPLE'S SLEEP.
 Job cpu time:  0 days  5 hours 18 minutes 38.8 seconds.
 File lengths (MBytes):  RWF=    512 Int=      0 D2E=      0 Chk=     17 Scr=      1
 Normal termination of Gaussian 09 at Thu May 27 01:04:19 2021.
